Command:  /global/home/groups/lr_mp/ewcspottesmith/schrodinger2020-1/jaguar run AutoTS.T9XnCsLi_relax_ts_0.in -TPP 32 -HOST n0260
Release:  2020-1
Exec:     /global/home/groups/lr_mp/ewcspottesmith/schrodinger2020-1/jaguar-v10.7/bin/Linux-x86_64
Host:     n0260.lr6
JobId:    n0260-0-5e73fc26
JobDir:   /var/tmp/ewcspottesmith/AutoTS.T9XnCsLi_relax_ts_0#n0260-0-5e73fc26
Date:     Thu Mar 19 16:11:36 2020

Contents of /var/tmp/ewcspottesmith/AutoTS.T9XnCsLi_relax_ts_0#n0260-0-5e73fc26:
/var/tmp/ewcspottesmith/AutoTS.T9XnCsLi_relax_ts_0#n0260-0-5e73fc26/AutoTS.T9XnCsLi_relax_ts_0.mae
/var/tmp/ewcspottesmith/AutoTS.T9XnCsLi_relax_ts_0#n0260-0-5e73fc26/AutoTS.T9XnCsLi_relax_ts_0.log
/var/tmp/ewcspottesmith/AutoTS.T9XnCsLi_relax_ts_0#n0260-0-5e73fc26/n0260-0-5e73fc26
/var/tmp/ewcspottesmith/AutoTS.T9XnCsLi_relax_ts_0#n0260-0-5e73fc26/n0000-0-5e7378a4.hosts
/var/tmp/ewcspottesmith/AutoTS.T9XnCsLi_relax_ts_0#n0260-0-5e73fc26/n0260-0-5e73fc26.recover
/var/tmp/ewcspottesmith/AutoTS.T9XnCsLi_relax_ts_0#n0260-0-5e73fc26/AutoTS.T9XnCsLi_relax_ts_0.in
/var/tmp/ewcspottesmith/AutoTS.T9XnCsLi_relax_ts_0#n0260-0-5e73fc26/n0260-0-5e73fc26.mpinodes
/var/tmp/ewcspottesmith/AutoTS.T9XnCsLi_relax_ts_0#n0260-0-5e73fc26/AutoTS.T9XnCsLi_relax_ts_0.recover
/var/tmp/ewcspottesmith/AutoTS.T9XnCsLi_relax_ts_0#n0260-0-5e73fc26/n0260-0-5e73fc26.nodes
/var/tmp/ewcspottesmith/AutoTS.T9XnCsLi_relax_ts_0#n0260-0-5e73fc26/.write_dir.json


The following structure properties were deleted from the input .mae file: /var/tmp/ewcspottesmith/AutoTS.T9XnCsLi_relax_ts_0#n0260-0-5e73fc26/AutoTS.T9XnCsLi_relax_ts_0.mae
i_m_Molecular_charge

Executing subprocess:
/global/home/groups/lr_mp/ewcspottesmith/schrodinger2020-1/jaguar-v10.7/bin/Linux-x86_64/jexec AutoTS.T9XnCsLi_relax_ts_0.in -T 32 -out /var/tmp/ewcspottesmith/AutoTS.T9XnCsLi_relax_ts_0#n0260-0-5e73fc26 -cwd


** WARNING! Your Jaguar license will expire in 12 days. **

Job AutoTS.T9XnCsLi_relax_ts_0 started on n0260.lr6 at Thu Mar 19 16:11:36 2020
jobid: n0260-0-5e73fc26 
Jaguar version 10.7, release  12
 Using up to  32 threads per process
Molecular Point Group: C1      
Point Group used: C1 (symmetry turned off)
pre (input checking) done.
onee (1-electron integrals) done.
hfig (HF initial guess) done.
probe (project orbitals) done.
grid (grid generation) done.
scf type: UDFT=wB97X+D/HF(LR)+HF(SR)+xB97(SR)+cB97+D (wB97X-D)
  
       i  u  d  i  g
       t  p  i  c  r                                 RMS    maximum
       e  d  i  u  i                       energy  density   DIIS  
       r  t  s  t  d       total energy    change  change    error 
  
etot    1  N  N  0  N    -348.58649999262           2.8E-03  1.4E-01
etot    2  Y  Y  0  N    -349.24368338173  6.6E-01  2.9E-03  6.8E-02
etot    3  Y  Y  0  N    -348.71014108675 -5.3E-01  2.2E-03  1.0E-01
etot    4  N  Y  0  N    -349.82690050373  1.1E+00  5.1E-04  2.4E-02
etot    5  Y  Y  0  N    -349.87415003389  4.7E-02  1.9E-04  7.5E-03
etot    6  N  Y  0  N    -349.88189385262  7.7E-03  9.3E-05  2.3E-03
etot    7  Y  Y  0  N    -349.88315462273  1.3E-03  5.6E-05  1.2E-03
etot    8  Y  Y  0  N    -349.88353567638  3.8E-04  5.4E-05  9.5E-04
etot    9  Y  Y  0  N    -349.88386934821  3.3E-04  5.9E-05  7.2E-04
etot   10  Y  Y  0  N    -349.88419938209  3.3E-04  5.2E-05  7.3E-04
etot   11  N  Y  0  N    -349.88451878080  3.2E-04  4.4E-05  7.3E-04
etot   12  N  Y  0  N    -349.88476434204  2.5E-04  1.8E-04  6.8E-04
etot   13  Y  Y  0  N    -349.88572444047  9.6E-04  6.7E-05  7.1E-04
etot   14  Y  Y  0  N    -349.88537817725 -3.5E-04  2.4E-05  8.0E-04
etot   15  N  Y  0  N    -349.88526023088 -1.2E-04  1.2E-04  7.3E-04
etot   16  Y  Y  0  N    -349.88590884377  6.5E-04  9.4E-06  6.4E-04
etot   17  N  Y  0  N    -349.88592282451  1.4E-05  6.4E-05  6.9E-04
etot   18  Y  Y  0  N    -349.88556624255 -3.6E-04  8.9E-05  7.9E-04
etot   19  Y  Y  0  N    -349.88508479255 -4.8E-04  4.7E-05  6.9E-04
etot   20  N  Y  0  N    -349.88482222621 -2.6E-04  1.3E-05  6.7E-04
etot   21  N  Y  0  N    -349.88482022562 -2.0E-06  1.4E-04  7.4E-04
etot   22  Y  Y  0  N    -349.88561111102  7.9E-04  1.5E-05  6.3E-04
etot   23  N  Y  0  N    -349.88569229049  8.1E-05  3.6E-04  6.4E-04
etot   24  Y  Y  0  N    -349.88721516342  1.5E-03  3.4E-04  1.5E-03
etot   25  Y  Y  0  N    -349.88579191237 -1.4E-03  3.4E-04  8.0E-04
etot   26  N  Y  0  N    -349.88727559652  1.5E-03  6.1E-05  1.4E-03
etot   27  Y  Y  0  N    -349.88733030441  5.5E-05  1.3E-04  1.8E-03
etot   28  Y  Y  0  N    -349.88702833089 -3.0E-04  2.0E-04  2.8E-03
etot   29  Y  Y  0  N    -349.88740303912  3.7E-04  3.3E-05  1.1E-03
etot   30  N  Y  0  N    -349.88749542048  9.2E-05  1.5E-05  7.0E-04
etot   31  N  Y  0  N    -349.88753312461  3.8E-05  9.8E-05  6.0E-04
etot   32  Y  Y  0  N    -349.88799734317  4.6E-04  1.3E-04  6.6E-04
etot   33  Y  Y  0  N    -349.88860164211  6.0E-04  1.9E-04  5.9E-04
etot   34  Y  Y  0  N    -349.88938816803  7.9E-04  3.1E-05  5.8E-04
etot   35  N  Y  0  N    -349.88944309439  5.5E-05  2.4E-04  5.3E-04
etot   36  Y  Y  0  N    -349.88997031920  5.3E-04  4.3E-05  1.1E-03
etot   37  N  Y  0  N    -349.88992986850 -4.0E-05  1.3E-05  8.4E-04
etot   38  N  Y  0  N    -349.88995170002  2.2E-05  1.1E-04  8.7E-04
etot   39  Y  Y  0  N    -349.88976924546 -1.8E-04  1.3E-04  4.2E-04
etot   40  Y  Y  0  N    -349.89010683610  3.4E-04  5.8E-05  4.4E-04
etot   41  Y  Y  0  N    -349.88997740692 -1.3E-04  1.1E-04  3.2E-04
etot   42  Y  Y  0  N    -349.88960388109 -3.7E-04  3.0E-05  7.9E-04
etot   43  N  Y  0  N    -349.88973146254  1.3E-04  1.7E-04  6.3E-04
etot   44  Y  Y  0  N    -349.89023125779  5.0E-04  2.4E-05  2.8E-04
etot   45  N  Y  0  N    -349.89025760845  2.6E-05  8.1E-05  2.6E-04
etot   46  Y  Y  0  N    -349.89040685334  1.5E-04  3.7E-06  3.4E-04
etot   47  N  N  0  N    -349.89039753445 -9.3E-06  0.0E+00  0.0E+00
  
solvation phase SCF calculation with PCM ...
scf type: UDFT=wB97X+D/HF(LR)+HF(SR)+xB97(SR)+cB97+D (wB97X-D)
  
       i  u  d  i  g
       t  p  i  c  r                                 RMS    maximum
       e  d  i  u  i                       energy  density   DIIS  
       r  t  s  t  d       total energy    change  change    error 
  
etot    1  N  N  0  N    -349.91956120082           2.4E-04  4.2E-03
etot    2  Y  Y  0  N    -349.92220127197  2.6E-03  6.7E-05  3.2E-03
etot    3  N  Y  0  N    -349.92335972351  1.2E-03  1.4E-04  1.3E-03
etot    4  Y  Y  0  N    -349.92406035804  7.0E-04  1.0E-04  1.3E-03
etot    5  Y  Y  0  N    -349.92488197840  8.2E-04  5.9E-05  1.1E-03
etot    6  Y  Y  0  N    -349.92549630625  6.1E-04  2.9E-06  1.2E-03
etot    7  N  Y  0  N    -349.92543729552 -5.9E-05  7.3E-06  1.2E-03
etot    8  N  Y  0  N    -349.92545709246  2.0E-05  7.5E-04  1.2E-03
etot    9  Y  Y  0  N    -349.93070313146  5.2E-03  7.4E-04  4.0E-03
etot   10  N  Y  0  N    -349.92568133753 -5.0E-03  1.7E-04  1.5E-03
etot   11  N  Y  0  N    -349.92736349781  1.7E-03  1.8E-05  1.7E-03
etot   12  N  Y  0  N    -349.92755703735  1.9E-04  2.8E-05  1.7E-03
etot   13  N  Y  0  N    -349.92783637842  2.8E-04  6.1E-05  1.6E-03
etot   14  Y  Y  0  N    -349.92853170928  7.0E-04  3.7E-05  1.6E-03
etot   15  N  Y  0  N    -349.92894775462  4.2E-04  4.2E-05  1.5E-03
etot   16  N  Y  0  N    -349.92943768768  4.9E-04  3.8E-04  1.5E-03
etot   17  Y  Y  0  N    -349.92144756197 -8.0E-03  3.0E-04  6.4E-03
etot   18  N  Y  0  N    -349.92859852594  7.2E-03  2.7E-05  1.3E-03
etot   19  N  Y  0  N    -349.92891378274  3.2E-04  2.2E-05  1.3E-03
etot   20  N  Y  0  N    -349.92866298687 -2.5E-04  2.4E-05  1.3E-03
etot   21  N  Y  0  N    -349.92893894239  2.8E-04  1.4E-05  1.3E-03
etot   22  N  Y  0  N    -349.92909527623  1.6E-04  1.1E-04  1.3E-03
etot   23  Y  Y  0  N    -349.92779471206 -1.3E-03  4.2E-05  1.2E-03
etot   24  N  Y  0  N    -349.92819857771  4.0E-04  1.8E-05  1.1E-03
etot   25  N  Y  0  N    -349.92831506960  1.2E-04  1.2E-04  1.1E-03
etot   26  Y  Y  0  N    -349.92972209536  1.4E-03  2.2E-04  1.1E-03
etot   27  Y  Y  0  N    -349.92719275092 -2.5E-03  8.8E-04  1.1E-03
etot   28  N  Y  0  N    -349.91230882231 -1.5E-02  2.5E-04  6.6E-03
etot   29  N  Y  0  N    -349.91923375701  6.9E-03  8.5E-05  3.6E-03
etot   30  Y  Y  0  N    -349.91788224811 -1.4E-03  1.5E-04  4.2E-03
etot   31  Y  Y  0  N    -349.91421739633 -3.7E-03  4.2E-05  5.7E-03
etot   32  N  Y  0  N    -349.91282417907 -1.4E-03  9.1E-05  6.3E-03
etot   33  Y  Y  0  N    -349.91591838721  3.1E-03  3.1E-05  5.0E-03
etot   34  N  Y  0  N    -349.91595301957  3.5E-05  1.3E-04  4.8E-03
etot   35  Y  Y  0  N    -349.91271425419 -3.2E-03  3.5E-05  6.0E-03
etot   36  N  Y  0  N    -349.91462338720  1.9E-03  3.5E-04  5.0E-03
etot   37  Y  Y  0  N    -349.92124087117  6.6E-03  4.5E-05  9.5E-04
etot   38  N  Y  0  N    -349.92147840959  2.4E-04  4.6E-05  1.0E-03
etot   39  N  Y  0  N    -349.92184591239  3.7E-04  4.1E-04  1.1E-03
etot   40  Y  Y  0  N    -349.91846292420 -3.4E-03  8.1E-05  1.7E-03
etot   41  Y  Y  0  N    -349.91783127546 -6.3E-04  9.8E-05  1.9E-03
etot   42  N  Y  0  N    -349.91790883189  7.8E-05  6.2E-05  2.4E-03
etot   43  Y  Y  0  N    -349.91875895841  8.5E-04  3.5E-05  8.5E-04
etot   44  N  Y  0  N    -349.91902817301  2.7E-04  6.0E-05  8.4E-04
etot   45  Y  Y  0  N    -349.91943929322  4.1E-04  2.2E-05  8.6E-04
etot   46  N  Y  0  N    -349.91959414212  1.5E-04  2.4E-05  8.7E-04
etot   47  N  Y  0  N    -349.91976525462  1.7E-04  5.3E-05  8.7E-04
etot   48  Y  Y  0  N    -349.91938934653 -3.8E-04  7.0E-06  8.6E-04
etot   49  N  Y  0  N    -349.91943832724  4.9E-05  6.1E-06  8.7E-04
etot   50  N  Y  0  N    -349.91947881352  4.0E-05  2.8E-04  8.7E-04
etot   51  Y  Y  0  N    -349.91736742244 -2.1E-03  1.6E-04  1.4E-03
etot   52  Y  Y  0  N    -349.91856194108  1.2E-03  1.5E-04  1.1E-03
etot   53  N  Y  0  N    -349.91943508132  8.7E-04  3.5E-04  1.6E-03
etot   54  Y  Y  0  N    -349.92203080619  2.6E-03  1.0E-04  1.7E-03
etot   55  Y  Y  0  N    -349.92105553729 -9.8E-04  2.9E-04  1.9E-03
etot   56  N  Y  0  N    -349.92378924249  2.7E-03  2.7E-05  1.7E-03
etot   57  N  Y  0  N    -349.92355314688 -2.4E-04  1.2E-05  1.7E-03
etot   58  N  Y  0  N    -349.92364290834  9.0E-05  2.4E-05  1.7E-03
etot   59  N  Y  0  N    -349.92382629713  1.8E-04  2.2E-04  1.8E-03
etot   60  Y  Y  0  N    -349.92183896269 -2.0E-03  1.3E-05  2.4E-03
etot   61  N  Y  0  N    -349.92147723284 -3.6E-04  1.8E-04  3.1E-03
etot   62  Y  Y  0  N    -349.92031988409 -1.2E-03  7.6E-05  5.3E-03
etot   63  Y  Y  0  N    -349.92322497378  2.9E-03  2.7E-05  9.7E-04
etot   64  N  Y  0  N    -349.92345610040  2.3E-04  8.7E-05  1.0E-03
etot   65  Y  Y  0  N    -349.92265095144 -8.1E-04  4.4E-04  1.0E-03
etot   66  Y  Y  0  N    -349.91872202571 -3.9E-03  2.1E-05  1.9E-03
etot   67  N  Y  0  N    -349.91895852387  2.4E-04  5.8E-05  1.8E-03
etot   68  Y  Y  0  N    -349.91834232897 -6.2E-04  8.9E-05  2.2E-03
etot   69  Y  Y  0  N    -349.91910703789  7.6E-04  9.7E-05  1.8E-03
etot   70  Y  Y  0  N    -349.91959957148  4.9E-04  1.5E-04  1.3E-03
etot   71  Y  Y  0  N    -349.92056120547  9.6E-04  1.6E-04  1.0E-03
etot   72  N  Y  0  N    -349.91922251527 -1.3E-03  1.5E-04  1.4E-03
etot   73  Y  Y  0  N    -349.92003015581  8.1E-04  5.0E-05  2.3E-03
etot   74  Y  Y  0  N    -349.91914155650 -8.9E-04  1.1E-04  3.1E-03
etot   75  Y  Y  0  N    -349.91476902217 -4.4E-03  2.9E-04  5.9E-03
etot   76  Y  Y  0  N    -349.91633101342  1.6E-03  1.3E-04  7.1E-03
etot   77  N  Y  0  N    -349.91960395834  3.3E-03  7.2E-05  2.8E-03
etot   78  Y  Y  0  N    -349.92069809051  1.1E-03  5.7E-05  1.5E-03
etot   79  Y  Y  0  N    -349.92125683943  5.6E-04  6.5E-05  1.2E-03
etot   80  Y  Y  0  N    -349.92185224507  6.0E-04  4.6E-05  1.0E-03
etot   81  N  Y  0  N    -349.92223164951  3.8E-04  3.2E-05  1.1E-03
etot   82  N  Y  0  N    -349.92250665801  2.8E-04  3.4E-04  1.1E-03
etot   83  Y  Y  0  N    -349.91963730383 -2.9E-03  3.3E-05  1.4E-03
etot   84  N  Y  0  N    -349.91992367936  2.9E-04  2.4E-05  1.4E-03
etot   85  N  Y  0  N    -349.91973665055 -1.9E-04  1.0E-04  1.5E-03
etot   86  Y  Y  0  N    -349.91926570195 -4.7E-04  8.7E-05  1.3E-03
etot   87  Y  Y  0  N    -349.91871872868 -5.5E-04  1.4E-04  1.2E-03
etot   88  Y  Y  0  N    -349.91955544132  8.4E-04  6.5E-04  1.4E-03
etot   89  N  Y  0  N    -349.92540027909  5.8E-03  4.9E-04  1.3E-03
etot   90  Y  Y  0  N    -349.92084032795 -4.6E-03  6.3E-04  1.7E-03
etot   91  N  Y  0  N    -349.91550304563 -5.3E-03  2.0E-04  2.8E-03
etot   92  N  Y  0  N    -349.91749743323  2.0E-03  2.7E-04  1.9E-03
etot   93  Y  Y  0  N    -349.91957165489  2.1E-03  1.0E-04  1.3E-03
etot   94  Y  Y  0  N    -349.92024249345  6.7E-04  1.7E-04  1.6E-03
etot   95  N  Y  0  N    -349.92152431742  1.3E-03  1.5E-05  1.5E-03
etot   96  N  Y  0  N    -349.92157241290  4.8E-05  7.5E-06  1.4E-03
etot   97  N  Y  0  N    -349.92162074079  4.8E-05  3.2E-05  1.4E-03
etot   98  N  Y  0  N    -349.92139268089 -2.3E-04  2.1E-05  1.4E-03
etot   99  N  Y  0  N    -349.92155657719  1.6E-04  2.3E-04  1.4E-03
etot  100  Y  Y  0  N    -349.91925011171 -2.3E-03  1.9E-04  2.9E-03
etot  101  Y  Y  0  N    -349.92129032124  2.0E-03  7.9E-05  1.4E-03
etot  102  N  Y  0  N    -349.92197886270  6.9E-04  6.7E-05  1.1E-03
etot  103  Y  Y  0  N    -349.92253998587  5.6E-04  7.8E-05  9.6E-04
etot  104  Y  Y  0  N    -349.92118491290 -1.4E-03  6.8E-05  3.5E-03
etot  105  Y  Y  0  N    -349.92220831766  1.0E-03  4.6E-04  1.1E-03
etot  106  N  Y  0  N    -349.91856706534 -3.6E-03  6.4E-04  1.3E-03
etot  107  Y  Y  0  N    -349.90220305995 -1.6E-02  1.0E-03  9.6E-03
etot  108  N  Y  0  N    -349.91936703650  1.7E-02  2.0E-04  4.9E-03
etot  109  Y  Y  0  N    -349.92029416996  9.3E-04  1.2E-04  4.1E-03
etot  110  Y  Y  0  N    -349.92244419269  2.2E-03  7.5E-05  2.6E-03
etot  111  Y  Y  0  N    -349.92344425568  1.0E-03  6.1E-05  9.7E-04
etot  112  Y  Y  0  N    -349.92402742109  5.8E-04  4.8E-05  1.0E-03
etot  113  N  Y  0  N    -349.92446668635  4.4E-04  2.1E-05  1.0E-03
etot  114  N  Y  0  N    -349.92465815247  1.9E-04  1.0E-04  1.0E-03
etot  115  Y  Y  0  N    -349.92370643949 -9.5E-04  9.5E-05  9.9E-04
etot  116  Y  Y  0  N    -349.92281624374 -8.9E-04  3.9E-04  9.3E-04
etot  117  N  Y  0  N    -349.91951260246 -3.3E-03  4.8E-04  1.3E-03
etot  118  Y  Y  0  N    -349.92369713160  4.2E-03  7.4E-06  9.7E-04
etot  119  N  Y  0  N    -349.92360063638 -9.6E-05  6.5E-04  9.4E-04
etot  120  Y  Y  0  N    -349.91730474713 -6.3E-03  1.2E-03  2.8E-03
etot  121  N  Y  0  N    -349.92920901081  1.2E-02  3.0E-04  2.9E-03
etot  122  Y  Y  0  N    -349.92680583541 -2.4E-03  3.1E-04  1.6E-03
etot  123  Y  Y  0  N    -349.92369744266 -3.1E-03  5.6E-04  1.5E-03
etot  124  N  Y  0  N    -349.91886301259 -4.8E-03  3.3E-05  1.9E-03
etot  125  N  Y  0  N    -349.91853006841 -3.3E-04  2.3E-04  2.2E-03
etot  126  Y  Y  0  N    -349.92072501993  2.2E-03  5.5E-05  1.3E-03
etot  127  Y  Y  0  N    -349.92019815794 -5.3E-04  5.7E-05  1.6E-03
etot  128  N  Y  0  N    -349.92055652167  3.6E-04  3.1E-04  1.7E-03
etot  129  Y  Y  0  N    -349.92342523717  2.9E-03  1.6E-04  1.2E-03
etot  130  Y  Y  0  N    -349.92197206501 -1.5E-03  4.5E-04  1.2E-03
etot  131  N  Y  0  N    -349.91778722093 -4.2E-03  8.8E-05  2.5E-03
etot  132  Y  Y  0  N    -349.91661812158 -1.2E-03  2.5E-04  3.0E-03
etot  133  Y  Y  0  N    -349.91934172961  2.7E-03  5.3E-05  1.8E-03
etot  134  Y  Y  0  N    -349.91869378060 -6.5E-04  6.0E-05  2.4E-03
etot  135  Y  Y  0  N    -349.91907602658  3.8E-04  6.4E-05  2.4E-03
etot  136  N  Y  0  N    -349.91877985996 -3.0E-04  1.8E-05  2.3E-03
etot  137  N  Y  0  N    -349.91896397811  1.8E-04  4.6E-05  2.1E-03
etot  138  N  Y  0  N    -349.91856362912 -4.0E-04  1.7E-04  2.2E-03
etot  139  Y  Y  0  N    -349.92017282927  1.6E-03  5.7E-05  1.7E-03
etot  140  Y  Y  0  N    -349.92077510465  6.0E-04  1.9E-04  1.3E-03
etot  141  Y  Y  0  N    -349.92239055520  1.6E-03  4.9E-04  1.3E-03
etot  142  N  Y  0  N    -349.91746221987 -4.9E-03  2.2E-04  2.8E-03
etot  143  Y  Y  0  N    -349.91909687356  1.6E-03  2.8E-05  2.9E-03
etot  144  N  Y  0  N    -349.91788421550 -1.2E-03  9.9E-05  3.9E-03
etot  145  Y  Y  0  N    -349.90954690446 -8.3E-03  2.7E-04  8.7E-03
etot  146  N  Y  0  N    -349.91541294797  5.9E-03  1.4E-04  6.6E-03
etot  147  Y  Y  0  N    -349.91759466925  2.2E-03  8.3E-05  3.9E-03
etot  148  Y  Y  0  N    -349.91946778971  1.9E-03  6.8E-05  1.4E-03
etot  149  N  Y  0  N    -349.92011355259  6.5E-04  4.5E-05  1.0E-03
etot  150  N  Y  0  N    -349.92049185947  3.8E-04  9.2E-05  8.5E-04
etot  151  Y  Y  0  N    -349.92122167899  7.3E-04  2.3E-05  9.1E-04
etot  152  N  Y  0  N    -349.92102664101 -2.0E-04  9.6E-05  9.2E-04
etot  153  Y  Y  0  N    -349.92027774003 -7.5E-04  1.5E-04  9.0E-04
etot  154  Y  Y  0  N    -349.92149829071  1.2E-03  2.3E-05  1.0E-03
etot  155  N  Y  0  N    -349.92167862918  1.8E-04  4.2E-06  1.0E-03
etot  156  N  Y  0  N    -349.92169520767  1.7E-05  5.4E-04  9.8E-04
etot  157  Y  Y  0  N    -349.91721705363 -4.5E-03  9.0E-04  2.2E-03
etot  158  N  Y  0  N    -349.92504853421  7.8E-03  7.1E-04  1.5E-03
etot  159  Y  Y  0  N    -349.91891880800 -6.1E-03  5.8E-05  1.4E-03
etot  160  N  Y  0  N    -349.91843895916 -4.8E-04  1.4E-04  1.8E-03
etot  161  Y  Y  0  N    -349.91916961415  7.3E-04  2.1E-04  2.0E-03
etot  162  Y  Y  0  N    -349.92092031165  1.8E-03  3.0E-05  1.4E-03
etot  163  N  Y  0  N    -349.92055731915 -3.6E-04  1.9E-04  1.7E-03
etot  164  Y  Y  0  N    -349.92217809086  1.6E-03  1.1E-04  1.5E-03
etot  165  Y  Y  0  N    -349.92321076445  1.0E-03  1.9E-05  1.3E-03
etot  166  N  Y  0  N    -349.92335343915  1.4E-04  3.5E-05  1.3E-03
etot  167  N  Y  0  N    -349.92346938602  1.2E-04  2.1E-04  1.5E-03
etot  168  Y  Y  0  N    -349.92154868997 -1.9E-03  3.2E-04  2.2E-03
etot  169  Y  Y  0  N    -349.91875283091 -2.8E-03  4.2E-04  2.3E-03
etot  170  N  Y  0  N    -349.92253792976  3.8E-03  8.7E-05  1.5E-03
etot  171  Y  Y  0  N    -349.92214846886 -3.9E-04  5.1E-05  9.8E-04
etot  172  Y  Y  0  N    -349.92180166920 -3.5E-04  1.9E-05  1.1E-03
etot  173  N  Y  0  N    -349.92186007845  5.8E-05  4.1E-05  1.2E-03
etot  174  N  Y  0  N    -349.92156117660 -3.0E-04  1.9E-04  1.3E-03
etot  175  Y  Y  0  N    -349.92324839277  1.7E-03  4.3E-05  1.2E-03
etot  176  N  Y  0  N    -349.92286602771 -3.8E-04  3.5E-04  1.2E-03
etot  177  Y  Y  0  N    -349.91980056716 -3.1E-03  3.9E-05  1.7E-03
etot  178  N  Y  0  N    -349.91953777415 -2.6E-04  4.5E-05  1.7E-03
etot  179  N  Y  0  N    -349.91911823118 -4.2E-04  1.1E-04  1.9E-03
etot  180  Y  Y  0  N    -349.92010626278  9.9E-04  6.1E-05  1.6E-03
etot  181  Y  Y  0  N    -349.92062886197  5.2E-04  6.4E-05  1.4E-03
etot  182  Y  Y  0  N    -349.92112163898  4.9E-04  2.4E-06  1.4E-03
etot  183  N  N  0  N    -349.92111630239 -5.3E-06  0.0E+00  0.0E+00
scf (UDFT) done.
der1a (1-e 1st deriv.) done.
der1b (2-e 1st deriv.) done.
  Geometry optimization step   1
  Total energy:      -349.92111630239 hartrees
  gradient maximum:        2.3070E-02 .  (  1.3500E-03 )
  gradient rms:            7.1487E-03 .  (  9.0000E-04 )
  displacement maximum:    1.3109E-01 .  (  5.4000E-03 )
  displacement rms:        2.8523E-02 .  (  3.6000E-03 )
  
  predicted energy change: -3.4976E-03
  step size:     0.17813
  trust radius:  0.30000
 [ energy is converged - apply eigmin ]
---------------- geometry iteration   1 complete ----------------
geopt (optimize geometry) done.
onee (1-electron integrals) done.
probe (project orbitals) done.
grid (grid generation) done.
  
       i  u  d  i  g
       t  p  i  c  r                                 RMS    maximum
       e  d  i  u  i                       energy  density   DIIS  
       r  t  s  t  d       total energy    change  change    error 
  
etot    1  N  N  0  N    -349.91596994133           2.1E-04  4.2E-03
etot    2  Y  Y  0  N    -349.92166743452  5.7E-03  1.3E-04  2.0E-03
etot    3  N  Y  0  N    -349.92252662574  8.6E-04  3.8E-05  2.6E-03
etot    4  N  Y  0  N    -349.92344412239  9.2E-04  6.1E-05  1.2E-03
etot    5  Y  Y  0  N    -349.92415031070  7.1E-04  4.7E-05  1.3E-03
etot    6  N  Y  0  N    -349.92471306957  5.6E-04  1.1E-04  1.3E-03
etot    7  Y  Y  0  N    -349.92345681313 -1.3E-03  1.5E-04  1.2E-03
etot    8  Y  Y  0  N    -349.92435835098  9.0E-04  6.3E-05  2.9E-03
etot    9  Y  Y  0  N    -349.92503745979  6.8E-04  1.4E-05  1.4E-03
etot   10  N  Y  0  N    -349.92519400633  1.6E-04  1.2E-05  1.5E-03
etot   11  N  Y  0  N    -349.92532446824  1.3E-04  1.0E-04  1.5E-03
etot   12  Y  Y  0  N    -349.92289038556 -2.4E-03  7.7E-04  4.2E-03
etot   13  N  Y  0  N    -349.91394961139 -8.9E-03  8.1E-04  4.5E-03
etot   14  N  Y  0  N    -349.92084225618  6.9E-03  9.4E-05  5.6E-03
etot   15  Y  Y  0  N    -349.92440759990  3.6E-03  1.2E-04  2.8E-03
etot   16  Y  Y  0  N    -349.92566376488  1.3E-03  1.2E-04  3.5E-03
etot   17  N  Y  0  N    -349.92775264442  2.1E-03  9.5E-05  1.2E-03
etot   18  Y  Y  0  N    -349.92912038679  1.4E-03  8.6E-05  1.4E-03
etot   19  Y  Y  0  N    -349.93037317550  1.3E-03  3.0E-05  1.4E-03
etot   20  N  Y  0  N    -349.93075156348  3.8E-04  1.2E-05  1.4E-03
etot   21  N  Y  0  N    -349.93057622387 -1.8E-04  4.5E-06  1.4E-03
etot   22  N  Y  0  N    -349.93064002951  6.4E-05  4.6E-07  1.4E-03
etot   23  N  N  0  N    -349.93063351480 -6.5E-06  0.0E+00  0.0E+00
scf (UDFT) done.
der1a (1-e 1st deriv.) done.
der1b (2-e 1st deriv.) done.
  Geometry optimization step   2
  Total energy:      -349.93572699474 hartrees

  energy change:-1.4611E-02  predicted:-3.6662E-03  quadratic:-5.9665E-03
  line slope:   before-3.8062E-02  after-2.8928E-02  predicted-3.1019E-03

  energy prediction error:   2.9771E+00
  pred/quad energy error:   -6.2570E-01  tremx: 2.5000E-01
  quadratic energy error:    1.4464E+00

  step size: 1.7813E-01  trust radius: 3.0000E-01
  energy change:          -1.4611E-02 .  (  1.5000E-04 )
  gradient maximum:        3.0170E-02 .  (  1.3500E-03 )
  gradient rms:            9.4509E-03 .  (  9.0000E-04 )
  displacement maximum:    1.9439E-01 .  (  5.4000E-03 )
  displacement rms:        4.8078E-02 .  (  3.6000E-03 )
  
  predicted energy change: -1.1482E-02
  step size:     0.30025
  trust radius:  0.30000
---------------- geometry iteration   2 complete ----------------
geopt (optimize geometry) done.
onee (1-electron integrals) done.
probe (project orbitals) done.
grid (grid generation) done.
  
       i  u  d  i  g
       t  p  i  c  r                                 RMS    maximum
       e  d  i  u  i                       energy  density   DIIS  
       r  t  s  t  d       total energy    change  change    error 
  
etot    1  N  N  0  N    -349.92194616280           3.7E-04  6.6E-03
etot    2  Y  Y  0  N    -349.93933529995  1.7E-02  1.7E-04  3.8E-03
etot    3  N  Y  0  N    -349.94310071761  3.8E-03  1.2E-04  4.0E-03
etot    4  Y  Y  0  N    -349.94623836297  3.1E-03  1.7E-04  2.8E-03
etot    5  Y  Y  0  N    -349.94975979409  3.5E-03  2.7E-04  2.3E-03
etot    6  N  Y  0  N    -349.95303511380  3.3E-03  7.0E-05  1.7E-03
etot    7  Y  Y  0  N    -349.95359333812  5.6E-04  5.3E-05  7.8E-04
etot    8  Y  Y  0  N    -349.95387019937  2.8E-04  5.1E-05  6.9E-04
etot    9  Y  Y  0  N    -349.95403942136  1.7E-04  3.6E-05  2.9E-04
etot   10  N  Y  0  N    -349.95407677114  3.7E-05  1.6E-05  1.5E-04
etot   11  N  Y  0  N    -349.95408758444  1.1E-05  7.5E-06  7.8E-05
etot   12  N  Y  0  N    -349.95408922307  1.6E-06  6.6E-06  7.5E-05
etot   13  N  Y  0  N    -349.95409100546  1.8E-06  1.7E-06  1.6E-05
etot   14  N  N  0  N    -349.95409111203  1.1E-07  0.0E+00  0.0E+00
scf (UDFT) done.
der1a (1-e 1st deriv.) done.
der1b (2-e 1st deriv.) done.
  Geometry optimization step   3
  Total energy:      -349.95914142947 hartrees

  energy change:-2.3414E-02  predicted:-1.1395E-02  quadratic:-9.6864E-03
  line slope:   before-4.2585E-02  after-2.1938E-02  predicted-3.3321E-02

  energy prediction error:   1.0538E+00
  pred/quad energy error:    1.4983E-01  tremx: 2.5000E-01
  quadratic energy error:    1.4158E+00

  step size: 3.0025E-01  trust radius: 3.0000E-01
  energy noise:      1.2324E-02
  gradient noise      abs:  8.3230E-05    rms:  1.3328E-05
  displacement noise  abs:  1.8894E-03    rms:  3.0255E-04
  hessian eigenvalue  min:  4.4050E-02
  progress:  0.30025  0.47122
  
  energy change:          -2.3414E-02 .  (  1.5000E-04 )
  gradient maximum:        2.6249E-02 .  (  1.3500E-03 )
  gradient rms:            1.0072E-02 .  (  9.0000E-04 )
  displacement maximum:    1.9381E-01 .  (  5.4000E-03 )
  displacement rms:        4.8033E-02 .  (  3.6000E-03 )
  
  predicted energy change: -7.1612E-03
  step size:     0.29996
  trust radius:  0.30000
---------------- geometry iteration   3 complete ----------------
geopt (optimize geometry) done.
onee (1-electron integrals) done.
probe (project orbitals) done.
grid (grid generation) done.
  
       i  u  d  i  g
       t  p  i  c  r                                 RMS    maximum
       e  d  i  u  i                       energy  density   DIIS  
       r  t  s  t  d       total energy    change  change    error 
  
etot    1  N  N  0  N    -349.94931896844           2.6E-04  5.9E-03
etot    2  Y  Y  0  N    -349.95700733266  7.7E-03  9.4E-05  2.0E-03
etot    3  N  Y  0  N    -349.95727823058  2.7E-04  5.0E-05  2.6E-03
etot    4  N  Y  0  N    -349.95815477922  8.8E-04  1.9E-05  3.6E-04
etot    5  N  Y  0  N    -349.95820820303  5.3E-05  9.9E-06  2.3E-04
etot    6  N  Y  0  N    -349.95822256716  1.4E-05  6.3E-06  1.2E-04
etot    7  N  Y  0  N    -349.95822821114  5.6E-06  4.7E-06  7.5E-05
etot    8  N  N  0  N    -349.95823033369  2.1E-06  0.0E+00  0.0E+00
scf (UDFT) done.
der1a (1-e 1st deriv.) done.
der1b (2-e 1st deriv.) done.
  Geometry optimization step   4
  Total energy:      -349.96324736789 hartrees

  energy change:-4.1059E-03  predicted:-7.4368E-03  quadratic:-4.1715E-03
  line slope:   before-3.6384E-02  after 8.5707E-03  predicted-1.3201E-02

  energy prediction error:  -4.4729E-01  tremx: 2.5000E-01
  pred/quad energy error:    4.3848E-01
  quadratic energy error:   -1.5677E-02

  step size: 2.9996E-01  trust radius: 3.0000E-01
  energy noise:      1.2607E-02
  gradient noise      abs:  1.4397E-04    rms:  2.3054E-05
  displacement noise  abs:  1.3087E-02    rms:  2.0955E-03
  hessian eigenvalue  min:  1.1002E-02
  progress:  0.29996  0.58989  0.75285
  
  energy change:          -4.1059E-03 .  (  1.5000E-04 )
  gradient maximum:        3.1947E-02 .  (  1.3500E-03 )
  gradient rms:            8.8421E-03 .  (  9.0000E-04 )
  displacement maximum:    6.3211E-02 .  (  5.4000E-03 )
  displacement rms:        2.2792E-02 .  (  3.6000E-03 )
  
  predicted energy change: -2.4919E-03
  step size:     0.14234
  trust radius:  0.30000
---------------- geometry iteration   4 complete ----------------
geopt (optimize geometry) done.
onee (1-electron integrals) done.
probe (project orbitals) done.
grid (grid generation) done.
  
       i  u  d  i  g
       t  p  i  c  r                                 RMS    maximum
       e  d  i  u  i                       energy  density   DIIS  
       r  t  s  t  d       total energy    change  change    error 
  
etot    1  N  N  0  N    -349.95844702872           1.4E-04  2.9E-03
etot    2  Y  Y  0  N    -349.96145619368  3.0E-03  3.8E-05  7.8E-04
etot    3  N  Y  0  N    -349.96159937989  1.4E-04  1.3E-05  4.6E-04
etot    4  N  Y  0  N    -349.96163662607  3.7E-05  7.2E-06  2.5E-04
etot    5  N  Y  0  N    -349.96164679310  1.0E-05  3.4E-06  7.7E-05
etot    6  N  N  0  N    -349.96164889680  2.1E-06  0.0E+00  0.0E+00
scf (UDFT) done.
der1a (1-e 1st deriv.) done.
der1b (2-e 1st deriv.) done.
  Geometry optimization step   5
  Total energy:      -349.96667740511 hartrees

  energy change:-3.4300E-03  predicted:-2.4088E-03  quadratic:-3.3865E-03
  line slope:   before-3.4319E-02  after-1.3265E-02  predicted 4.7222E-04

  energy prediction error:   4.2221E-01  tremx: 2.5000E-01
  pred/quad energy error:   -4.0419E-01
  quadratic energy error:    1.2832E-02

  step size: 1.4234E-01  trust radius: 3.0000E-01
  energy noise:      1.0061E-02
  gradient noise      abs:  1.0308E-04    rms:  1.6506E-05
  displacement noise  abs:  1.0971E-02    rms:  1.7568E-03
  hessian eigenvalue  min:  9.3951E-03
  progress:  0.14234  0.35888  0.62554  0.78208
  
  energy change:          -3.4300E-03 .  (  1.5000E-04 )
  gradient maximum:        1.8452E-02 .  (  1.3500E-03 )
  gradient rms:            5.1274E-03 .  (  9.0000E-04 )
  displacement maximum:    6.5107E-02 .  (  5.4000E-03 )
  displacement rms:        2.4514E-02 .  (  3.6000E-03 )
  
  predicted energy change: -1.7018E-03
  step size:     0.15309
  trust radius:  0.30000
---------------- geometry iteration   5 complete ----------------
geopt (optimize geometry) done.
onee (1-electron integrals) done.
probe (project orbitals) done.
grid (grid generation) done.
  
       i  u  d  i  g
       t  p  i  c  r                                 RMS    maximum
       e  d  i  u  i                       energy  density   DIIS  
       r  t  s  t  d       total energy    change  change    error 
  
etot    1  N  N  0  N    -349.95685505101           2.0E-04  4.8E-03
etot    2  Y  Y  0  N    -349.96359853239  6.7E-03  5.4E-05  1.1E-03
etot    3  N  Y  0  N    -349.96403276910  4.3E-04  1.6E-05  3.8E-04
etot    4  N  Y  0  N    -349.96407233512  4.0E-05  1.0E-05  2.9E-04
etot    5  N  Y  0  N    -349.96409476538  2.2E-05  3.7E-06  1.2E-04
etot    6  N  N  0  N    -349.96409778003  3.0E-06  0.0E+00  0.0E+00
scf (UDFT) done.
der1a (1-e 1st deriv.) done.
der1b (2-e 1st deriv.) done.
  Geometry optimization step   6
  Total energy:      -349.96917384694 hartrees

  energy change:-2.4964E-03  predicted:-1.5138E-03  quadratic:-2.4425E-03
  line slope:   before-2.1724E-02  after-1.0187E-02  predicted 1.9462E-03

  energy prediction error:   6.4483E-01  tremx: 2.5000E-01
  pred/quad energy error:   -6.0945E-01
  quadratic energy error:    2.1980E-02

  step size: 1.5309E-01  trust radius: 3.0000E-01
  energy noise:      8.9761E-03
  gradient noise      abs:  1.1889E-04    rms:  1.9038E-05
  displacement noise  abs:  1.3086E-02    rms:  2.0954E-03
  hessian eigenvalue  min:  9.0857E-03
  progress:  0.15309  0.27764  0.43220  0.65266  0.78995
  
  energy change:          -2.4964E-03 .  (  1.5000E-04 )
  gradient maximum:        1.4586E-02 .  (  1.3500E-03 )
  gradient rms:            3.7285E-03 .  (  9.0000E-04 )
  displacement maximum:    9.1539E-02 .  (  5.4000E-03 )
  displacement rms:        2.8033E-02 .  (  3.6000E-03 )
  
  predicted energy change: -1.5253E-03
  step size:     0.17507
  trust radius:  0.30000
---------------- geometry iteration   6 complete ----------------
geopt (optimize geometry) done.
onee (1-electron integrals) done.
probe (project orbitals) done.
grid (grid generation) done.
  
       i  u  d  i  g
       t  p  i  c  r                                 RMS    maximum
       e  d  i  u  i                       energy  density   DIIS  
       r  t  s  t  d       total energy    change  change    error 
  
etot    1  N  N  0  N    -349.95447905237           2.5E-04  7.1E-03
etot    2  Y  Y  0  N    -349.96513914576  1.1E-02  6.7E-05  1.2E-03
etot    3  N  Y  0  N    -349.96586629875  7.3E-04  2.0E-05  5.6E-04
etot    4  N  Y  0  N    -349.96593433035  6.8E-05  1.4E-05  4.2E-04
etot    5  N  Y  0  N    -349.96597401151  4.0E-05  5.1E-06  1.6E-04
etot    6  N  Y  0  N    -349.96598000613  6.0E-06  4.2E-06  8.5E-05
etot    7  N  N  0  N    -349.96598250704  2.5E-06  0.0E+00  0.0E+00
scf (UDFT) done.
der1a (1-e 1st deriv.) done.
der1b (2-e 1st deriv.) done.
  Geometry optimization step   7
  Total energy:      -349.97112024720 hartrees

  energy change:-1.9464E-03  predicted:-1.3759E-03  quadratic:-1.8935E-03
  line slope:   before-1.6907E-02  after-4.7242E-03  predicted 1.1889E-03

  energy prediction error:   4.1167E-01  tremx: 2.5000E-01
  pred/quad energy error:   -3.7347E-01
  quadratic energy error:    2.7810E-02

  step size: 1.7507E-01  trust radius: 3.0000E-01
  energy noise:      8.6268E-03
  gradient noise      abs:  9.9769E-05    rms:  1.5976E-05
  displacement noise  abs:  1.3721E-02    rms:  2.1971E-03
  hessian eigenvalue  min:  7.2713E-03
  progress:  0.17507  0.31810  0.42079  0.53435  0.70279  0.81413
  
  energy change:          -1.9464E-03 .  (  1.5000E-04 )
  gradient maximum:        6.5411E-03 .  (  1.3500E-03 )
  gradient rms:            2.3055E-03 .  (  9.0000E-04 )
  displacement maximum:    5.1573E-02 .  (  5.4000E-03 )
  displacement rms:        1.7553E-02 .  (  3.6000E-03 )
  
  predicted energy change: -4.1127E-04
  step size:     0.10962
  trust radius:  0.30000
---------------- geometry iteration   7 complete ----------------
geopt (optimize geometry) done.
onee (1-electron integrals) done.
probe (project orbitals) done.
grid (grid generation) done.
  
       i  u  d  i  g
       t  p  i  c  r                                 RMS    maximum
       e  d  i  u  i                       energy  density   DIIS  
       r  t  s  t  d       total energy    change  change    error 
  
etot    1  N  N  0  N    -349.96312057818           1.4E-04  3.6E-03
etot    2  Y  Y  0  N    -349.96625175412  3.1E-03  3.8E-05  7.0E-04
etot    3  N  Y  0  N    -349.96645051638  2.0E-04  1.2E-05  5.1E-04
etot    4  N  Y  0  N    -349.96648179965  3.1E-05  8.5E-06  2.2E-04
etot    5  N  Y  0  N    -349.96649585493  1.4E-05  3.1E-06  7.0E-05
etot    6  N  N  0  N    -349.96649756127  1.7E-06  0.0E+00  0.0E+00
scf (UDFT) done.
der1a (1-e 1st deriv.) done.
der1b (2-e 1st deriv.) done.
  Geometry optimization step   8
  Total energy:      -349.97164208370 hartrees

  energy change:-5.2184E-04  predicted:-4.4182E-04  quadratic:-4.9640E-04
  line slope:   before-7.4148E-03  after-1.6423E-03  predicted-6.4639E-04

  energy prediction error:   1.7710E-01  tremx: 2.5000E-01
  pred/quad energy error:   -1.2081E-01
  quadratic energy error:    5.0224E-02

  step size: 1.0962E-01  trust radius: 3.0000E-01
  energy noise:      7.7055E-03
  gradient noise      abs:  7.5497E-05    rms:  1.2089E-05
  displacement noise  abs:  1.1959E-02    rms:  1.9150E-03
  hessian eigenvalue  min:  6.3130E-03
  progress:  0.10962  0.24948  0.36779  0.44900  0.54763  0.70018  0.80481
  
  energy change:          -5.2184E-04 .  (  1.5000E-04 )
  gradient maximum:        2.5816E-03 .  (  1.3500E-03 )
  gradient rms:            9.5222E-04 .  (  9.0000E-04 )
  displacement maximum:    6.1302E-02 .  (  5.4000E-03 )
  displacement rms:        1.4602E-02 .  (  3.6000E-03 )
  
  predicted energy change: -9.9618E-05
  step size:     0.09119
  trust radius:  0.30000
---------------- geometry iteration   8 complete ----------------
geopt (optimize geometry) done.
onee (1-electron integrals) done.
probe (project orbitals) done.
grid (grid generation) done.
  
       i  u  d  i  g
       t  p  i  c  r                                 RMS    maximum
       e  d  i  u  i                       energy  density   DIIS  
       r  t  s  t  d       total energy    change  change    error 
  
etot    1  N  N  0  N    -349.96504631808           9.5E-05  2.8E-03
etot    2  Y  Y  0  N    -349.96654440998  1.5E-03  2.7E-05  6.2E-04
etot    3  N  Y  0  N    -349.96663805403  9.4E-05  7.9E-06  2.6E-04
etot    4  N  Y  0  N    -349.96664664134  8.6E-06  4.8E-06  1.7E-04
etot    5  N  N  0  N    -349.96665168481  5.0E-06  0.0E+00  0.0E+00
scf (UDFT) done.
der1a (1-e 1st deriv.) done.
der1b (2-e 1st deriv.) done.
  Geometry optimization step   9
  Total energy:      -349.97177609336 hartrees

  energy change:-1.3401E-04  predicted:-1.0020E-04  quadratic:-1.2278E-04
  line slope:   before-2.1669E-03  after-5.2592E-04  predicted-3.0890E-05

  energy prediction error:   3.0675E-01  tremx: 2.5000E-01
  pred/quad energy error:   -2.0480E-01
  quadratic energy error:    8.4613E-02

  step size: 9.1188E-02  trust radius: 3.0000E-01
  energy noise:      6.8024E-03
  gradient noise      abs:  7.0986E-05    rms:  1.1367E-05
  displacement noise  abs:  1.1070E-02    rms:  1.7726E-03
  hessian eigenvalue  min:  6.4125E-03
  progress:  0.09119  0.18842  0.28407  0.37227  0.43491  0.52834  0.68203
  
  energy change:          -1.3401E-04 *  (  1.5000E-04 )
  gradient maximum:        1.3358E-03 *  (  1.3500E-03 )
  gradient rms:            3.8801E-04 *  (  9.0000E-04 )
  displacement maximum:    1.9124E-02 .  (  5.4000E-03 )
  displacement rms:        4.7153E-03 .  (  3.6000E-03 )
  
  predicted energy change: -2.5448E-05
  step size:     0.02945
  trust radius:  0.30000
 [ almost converged ]
 [ energy is converged - apply eigmin ]
---------------- geometry iteration   9 complete ----------------
geopt (optimize geometry) done.
onee (1-electron integrals) done.
probe (project orbitals) done.
grid (grid generation) done.
  
       i  u  d  i  g
       t  p  i  c  r                                 RMS    maximum
       e  d  i  u  i                       energy  density   DIIS  
       r  t  s  t  d       total energy    change  change    error 
  
etot    1  N  N  0  N    -349.96663627603           2.1E-05  4.2E-04
etot    2  N  Y  0  N    -349.96668687574  5.1E-05  6.9E-06  1.2E-04
etot    3  N  Y  0  N    -349.96668878070  1.9E-06  3.3E-06  1.7E-04
etot    4  N  N  0  N    -349.96669302035  4.2E-06  0.0E+00  0.0E+00
scf (UDFT) done.
der1a (1-e 1st deriv.) done.
der1b (2-e 1st deriv.) done.
  Geometry optimization step  10
  Total energy:      -349.97181051188 hartrees

  energy change:-3.4419E-05  predicted:-2.5422E-05  quadratic:-3.6037E-05
  line slope:   before-1.7269E-03  after-7.2069E-04  predicted 2.8464E-07

  energy prediction error:   2.5399E-01  tremx: 2.5000E-01
  pred/quad energy error:   -2.9968E-01
  quadratic energy error:   -3.5160E-02

  step size: 2.9447E-02  trust radius: 3.0000E-01
  energy noise:      4.0944E-03
  gradient noise      abs:  6.8912E-05    rms:  1.1035E-05
  displacement noise  abs:  1.0438E-02    rms:  1.6714E-03
  hessian eigenvalue  min:  6.6021E-03
  progress:  0.02945  0.11388  0.20675  0.29207  0.37274  0.43067  0.52183
  
  energy change:          -3.4419E-05 *  (  1.5000E-04 )
  gradient maximum:        9.4021E-04 *  (  1.3500E-03 )
  gradient rms:            2.8315E-04 *  (  9.0000E-04 )
  displacement maximum:    2.4265E-02 .  (  5.4000E-03 )
  displacement rms:        5.1681E-03 .  (  3.6000E-03 )
  
  predicted energy change: -1.8523E-05
  step size:     0.03227
  trust radius:  0.30000
 [ almost converged ]
 [ energy is converged - apply eigmin ]
---------------- geometry iteration  10 complete ----------------
geopt (optimize geometry) done.
onee (1-electron integrals) done.
probe (project orbitals) done.
grid (grid generation) done.
  
       i  u  d  i  g
       t  p  i  c  r                                 RMS    maximum
       e  d  i  u  i                       energy  density   DIIS  
       r  t  s  t  d       total energy    change  change    error 
  
etot    1  N  N  0  N    -349.96670937058           1.8E-05  3.2E-04
etot    2  N  Y  0  N    -349.96673421924  2.5E-05  5.4E-06  1.3E-04
etot    3  N  Y  0  N    -349.96673496090  7.4E-07  2.5E-06  1.3E-04
etot    4  N  N  0  N    -349.96673740142  2.4E-06  0.0E+00  0.0E+00
scf (UDFT) done.
der1a (1-e 1st deriv.) done.
der1b (2-e 1st deriv.) done.
  Geometry optimization step  11
  Total energy:      -349.97185338632 hartrees

  energy change:-4.2874E-05  predicted:-1.8559E-05  quadratic:-2.4206E-05
  line slope:   before-1.1467E-03  after-3.5336E-04  predicted-3.3900E-06

  energy prediction error:   8.5143E-01
  pred/quad energy error:   -1.9775E-01  tremx: 2.5000E-01
  quadratic energy error:    5.4575E-01

  step size: 3.2275E-02  trust radius: 3.0000E-01
  energy noise:      3.2843E-03
  gradient noise      abs:  5.9071E-05    rms:  9.4590E-06
  displacement noise  abs:  9.2541E-03    rms:  1.4818E-03
  hessian eigenvalue  min:  6.3832E-03
  progress:  0.03227  0.05814  0.12757  0.21483  0.29695  0.37614  0.43372
  
  energy change:          -4.2874E-05 *  (  1.5000E-04 )
  gradient maximum:        8.3598E-04 *  (  1.3500E-03 )
  gradient rms:            2.5749E-04 *  (  9.0000E-04 )
  displacement maximum:    2.3397E-02 .  (  5.4000E-03 )
  displacement rms:        6.7685E-03 .  (  3.6000E-03 )
  
  predicted energy change: -1.1411E-05
  step size:     0.04227
  trust radius:  0.30000
 [ almost converged ]
 [ energy is converged - apply eigmin ]
---------------- geometry iteration  11 complete ----------------
geopt (optimize geometry) done.
onee (1-electron integrals) done.
probe (project orbitals) done.
grid (grid generation) done.
  
       i  u  d  i  g
       t  p  i  c  r                                 RMS    maximum
       e  d  i  u  i                       energy  density   DIIS  
       r  t  s  t  d       total energy    change  change    error 
  
etot    1  N  N  0  N    -349.96656516426           3.5E-05  9.9E-04
etot    2  N  Y  0  N    -349.96675842315  1.9E-04  9.9E-06  2.6E-04
etot    3  N  Y  0  N    -349.96677014038  1.2E-05  3.1E-06  1.0E-04
etot    4  N  N  0  N    -349.96677202569  1.9E-06  0.0E+00  0.0E+00
scf (UDFT) done.
der1a (1-e 1st deriv.) done.
der1b (2-e 1st deriv.) done.
  Geometry optimization step  12
  Total energy:      -349.97187895579 hartrees

  energy change:-2.5569E-05  predicted:-1.0884E-05  quadratic:-5.7300E-06
  line slope:   before-5.3896E-04  after 2.6784E-04  predicted 2.3953E-05

  energy prediction error:   7.0316E-01
  pred/quad energy error:    2.4681E-01  tremx: 2.5000E-01
  quadratic energy error:    1.2612E+00

  step size: 4.2269E-02  trust radius: 3.0000E-01
  energy noise:      3.0161E-03
  gradient noise      abs:  5.3949E-05    rms:  8.6388E-06
  displacement noise  abs:  4.2250E-03    rms:  6.7653E-04
  hessian eigenvalue  min:  1.2769E-02
  progress:  0.04227  0.06633  0.09431  0.16698  0.24811  0.31445  0.38179
  
  energy change:          -2.5569E-05 *  (  1.5000E-04 )
  gradient maximum:        4.8979E-04 *  (  1.3500E-03 )
  gradient rms:            1.9029E-04 *  (  9.0000E-04 )
  displacement maximum:    1.7816E-02 .  (  5.4000E-03 )
  displacement rms:        4.1528E-03 .  (  3.6000E-03 )
  
  predicted energy change: -6.6235E-06
  step size:     0.02593
  trust radius:  0.30000
 [ almost converged ]
 [ energy is converged - apply eigmin ]
---------------- geometry iteration  12 complete ----------------
geopt (optimize geometry) done.
onee (1-electron integrals) done.
probe (project orbitals) done.
grid (grid generation) done.
  
       i  u  d  i  g
       t  p  i  c  r                                 RMS    maximum
       e  d  i  u  i                       energy  density   DIIS  
       r  t  s  t  d       total energy    change  change    error 
  
etot    1  N  N  0  N    -349.96663602678           2.6E-05  7.2E-04
etot    2  N  Y  0  N    -349.96675379920  1.2E-04  7.9E-06  1.8E-04
etot    3  N  Y  0  N    -349.96675909422  5.3E-06  2.9E-06  1.3E-04
etot    4  N  N  0  N    -349.96676161024  2.5E-06  0.0E+00  0.0E+00
scf (UDFT) done.
der1a (1-e 1st deriv.) done.
der1b (2-e 1st deriv.) done.
  Geometry optimization step  13
  Total energy:      -349.97187683809 hartrees

  energy change: 2.1177E-06  predicted:-6.5383E-06  quadratic:-3.4030E-06
  line slope:   before-5.1044E-04  after 2.4801E-04  predicted 6.2228E-06

  energy prediction error:  -5.2339E-01  tremx: 2.5000E-01
  pred/quad energy error:    1.8958E-01
  quadratic energy error:   -4.1190E-01

  step size: 2.5934E-02  trust radius: 3.0000E-01
  energy noise:      2.4402E-03
  gradient noise      abs:  5.0234E-05    rms:  8.0439E-06
  displacement noise  abs:  2.9044E-03    rms:  4.6508E-04
  hessian eigenvalue  min:  1.7296E-02
  progress:  0.02593  0.03193  0.06197  0.08723  0.14869  0.22686  0.29939
  
  energy change:           2.1177E-06 #  (  1.5000E-04 )
  gradient maximum:        4.1587E-04 *  (  1.3500E-03 )
  gradient rms:            1.2657E-04 #  (  9.0000E-04 )
  displacement maximum:    6.5193E-03 .  (  5.4000E-03 )
  displacement rms:        1.6192E-03 *  (  3.6000E-03 )
  
  predicted energy change: -1.9750E-06
  step size:     0.01011
  trust radius:  0.30000
 [ almost converged ]
 [ energy is converged - apply eigmin ]
  [flexible convergence criteria satisfied]
------------- final geometry iteration  13 complete -------------
geopt (optimize geometry) done.
onee (1-electron integrals) done.
hfig (HF initial guess) done.
probe (project orbitals) done.
grid (grid generation) done.
scf type: UDFT=wB97X+D/HF(LR)+HF(SR)+xB97(SR)+cB97+D (wB97X-D)
  
       i  u  d  i  g
       t  p  i  c  r                                 RMS    maximum
       e  d  i  u  i                       energy  density   DIIS  
       r  t  s  t  d       total energy    change  change    error 
  
etot    1  N  N  0  N    -348.73812403923           1.9E-03  1.5E-01
etot    2  Y  Y  0  N    -349.71878452601  9.8E-01  1.5E-03  5.3E-02
etot    3  Y  Y  0  N    -349.69597060369 -2.3E-02  7.9E-04  4.9E-02
etot    4  N  Y  0  N    -349.91553163646  2.2E-01  2.4E-04  7.5E-03
etot    5  Y  Y  0  N    -349.92740989762  1.2E-02  1.3E-04  4.5E-03
etot    6  N  Y  0  N    -349.92996906862  2.6E-03  9.5E-05  1.6E-03
etot    7  Y  Y  0  N    -349.93129261698  1.3E-03  8.4E-05  1.3E-03
etot    8  Y  Y  0  N    -349.93201928937  7.3E-04  4.3E-05  5.4E-04
etot    9  N  Y  0  N    -349.93213239779  1.1E-04  2.7E-05  3.7E-04
etot   10  N  Y  0  N    -349.93218339841  5.1E-05  7.4E-06  1.3E-04
etot   11  N  Y  0  N    -349.93218755993  4.2E-06  3.7E-06  7.7E-05
etot   12  N  N  0  N    -349.93218882636  1.3E-06  0.0E+00  0.0E+00
  
solvation phase SCF calculation with PCM ...
scf type: UDFT=wB97X+D/HF(LR)+HF(SR)+xB97(SR)+cB97+D (wB97X-D)
  
       i  u  d  i  g
       t  p  i  c  r                                 RMS    maximum
       e  d  i  u  i                       energy  density   DIIS  
       r  t  s  t  d       total energy    change  change    error 
  
etot    1  N  N  0  N    -349.96664899154           2.2E-04  4.7E-03
etot    2  Y  Y  0  N    -349.97078642332  4.1E-03  8.4E-05  2.0E-03
etot    3  N  Y  0  N    -349.97138230970  6.0E-04  8.4E-05  1.4E-03
etot    4  Y  Y  0  N    -349.97172776196  3.5E-04  6.2E-05  7.4E-04
etot    5  Y  Y  0  N    -349.97182816438  1.0E-04  2.0E-05  3.4E-04
etot    6  N  Y  0  N    -349.97184955211  2.1E-05  1.3E-05  3.1E-04
etot    7  N  Y  0  N    -349.97186452364  1.5E-05  1.2E-05  1.6E-04
etot    8  N  Y  0  N    -349.97187447840  1.0E-05  5.7E-06  7.6E-05
etot    9  N  Y  0  N    -349.97187662859  2.2E-06  2.7E-06  3.6E-05
etot   10  N  N  0  N    -349.97187698669  3.6E-07  0.0E+00  0.0E+00
scf (UDFT) done.
-------------------------------------------------------
calculation at perturbed geometry   1 of  66 follows...
nude (numerical derivatives) done.
onee (1-electron integrals) done.
probe (project orbitals) done.
grid (grid generation) done.
scf type: UDFT=wB97X+D/HF(LR)+HF(SR)+xB97(SR)+cB97+D (wB97X-D)
  
       i  u  d  i  g
       t  p  i  c  r                                 RMS    maximum
       e  d  i  u  i                       energy  density   DIIS  
       r  t  s  t  d       total energy    change  change    error 
  
etot    1  N  N  0  N    -349.92466037657           2.6E-04  5.8E-03
etot    2  Y  Y  0  N    -349.93016711593  5.5E-03  8.2E-05  2.9E-03
etot    3  N  Y  0  N    -349.93098105664  8.1E-04  4.1E-05  1.4E-03
etot    4  N  Y  0  N    -349.93130552418  3.2E-04  2.5E-05  6.1E-04
etot    5  N  Y  0  N    -349.93135820797  5.3E-05  1.2E-05  2.6E-04
etot    6  N  Y  0  N    -349.93137839933  2.0E-05  7.5E-06  1.7E-04
etot    7  N  Y  0  N    -349.93138501818  6.6E-06  4.9E-06  7.2E-05
etot    8  N  N  0  N    -349.93138770987  2.7E-06  0.0E+00  0.0E+00
  
solvation phase SCF calculation with PCM ...
scf type: UDFT=wB97X+D/HF(LR)+HF(SR)+xB97(SR)+cB97+D (wB97X-D)
  
       i  u  d  i  g
       t  p  i  c  r                                 RMS    maximum
       e  d  i  u  i                       energy  density   DIIS  
       r  t  s  t  d       total energy    change  change    error 
  
etot    1  N  N  0  N    -349.96612788850           1.9E-04  4.7E-03
etot    2  Y  Y  0  N    -349.97029049950  4.2E-03  8.2E-05  2.0E-03
etot    3  Y  Y  0  N    -349.97090538002  6.1E-04  4.8E-05  1.3E-03
etot    4  N  Y  0  N    -349.97118007077  2.7E-04  3.1E-05  7.1E-04
etot    5  N  Y  0  N    -349.97125962164  8.0E-05  1.5E-05  3.1E-04
etot    6  N  Y  0  N    -349.97128987343  3.0E-05  1.0E-05  2.8E-04
etot    7  N  Y  0  N    -349.97130235237  1.2E-05  7.8E-06  1.4E-04
etot    8  N  Y  0  N    -349.97130828884  5.9E-06  6.5E-06  7.3E-05
etot    9  N  Y  0  N    -349.97131052199  2.2E-06  1.5E-06  3.1E-05
etot   10  N  N  0  N    -349.97131070807  1.9E-07  0.0E+00  0.0E+00
scf (UDFT) done.
ch (properties) done.
der1a (1-e 1st deriv.) done.
der1b (2-e 1st deriv.) done.
-------------------------------------------------------
calculation at perturbed geometry   2 of  66 follows...
nude (numerical derivatives) done.
onee (1-electron integrals) done.
probe (project orbitals) done.
grid (grid generation) done.
scf type: UDFT=wB97X+D/HF(LR)+HF(SR)+xB97(SR)+cB97+D (wB97X-D)
  
       i  u  d  i  g
       t  p  i  c  r                                 RMS    maximum
       e  d  i  u  i                       energy  density   DIIS  
       r  t  s  t  d       total energy    change  change    error 
  
etot    1  N  N  0  N    -349.92414210817           2.7E-04  6.3E-03
etot    2  Y  Y  0  N    -349.92986846312  5.7E-03  8.3E-05  2.9E-03
etot    3  N  Y  0  N    -349.93082244114  9.5E-04  4.4E-05  1.3E-03
etot    4  N  Y  0  N    -349.93118349226  3.6E-04  3.1E-05  9.5E-04
etot    5  N  Y  0  N    -349.93129494228  1.1E-04  1.8E-05  4.6E-04
etot    6  N  Y  0  N    -349.93135009262  5.5E-05  1.8E-05  3.9E-04
etot    7  N  Y  0  N    -349.93138254178  3.2E-05  1.4E-05  1.7E-04
etot    8  N  Y  0  N    -349.93139725090  1.5E-05  1.0E-05  8.9E-05
etot    9  N  Y  0  N    -349.93140144664  4.2E-06  2.1E-06  2.5E-05
etot   10  N  N  0  N    -349.93140179337  3.5E-07  0.0E+00  0.0E+00
  
solvation phase SCF calculation with PCM ...
scf type: UDFT=wB97X+D/HF(LR)+HF(SR)+xB97(SR)+cB97+D (wB97X-D)
  
       i  u  d  i  g
       t  p  i  c  r                                 RMS    maximum
       e  d  i  u  i                       energy  density   DIIS  
       r  t  s  t  d       total energy    change  change    error 
  
etot    1  N  N  0  N    -349.96563581640           1.9E-04  4.6E-03
etot    2  Y  Y  0  N    -349.96972262109  4.1E-03  8.1E-05  2.1E-03
etot    3  Y  Y  0  N    -349.97035396312  6.3E-04  4.8E-05  1.3E-03
etot    4  N  Y  0  N    -349.97064905580  3.0E-04  3.3E-05  7.4E-04
etot    5  N  Y  0  N    -349.97074507633  9.6E-05  1.7E-05  3.2E-04
etot    6  N  Y  0  N    -349.97078335979  3.8E-05  1.3E-05  3.2E-04
etot    7  N  Y  0  N    -349.97080127233  1.8E-05  9.8E-06  1.5E-04
etot    8  N  Y  0  N    -349.97080948132  8.2E-06  7.3E-06  7.9E-05
etot    9  N  Y  0  N    -349.97081208454  2.6E-06  1.5E-06  3.0E-05
etot   10  N  N  0  N    -349.97081229170  2.1E-07  0.0E+00  0.0E+00
scf (UDFT) done.
ch (properties) done.
der1a (1-e 1st deriv.) done.
der1b (2-e 1st deriv.) done.
-------------------------------------------------------
calculation at perturbed geometry   3 of  66 follows...
nude (numerical derivatives) done.
onee (1-electron integrals) done.
probe (project orbitals) done.
grid (grid generation) done.
scf type: UDFT=wB97X+D/HF(LR)+HF(SR)+xB97(SR)+cB97+D (wB97X-D)
  
       i  u  d  i  g
       t  p  i  c  r                                 RMS    maximum
       e  d  i  u  i                       energy  density   DIIS  
       r  t  s  t  d       total energy    change  change    error 
  
etot    1  N  N  0  N    -349.92447891441           2.6E-04  5.8E-03
etot    2  Y  Y  0  N    -349.93002912140  5.6E-03  8.2E-05  2.9E-03
etot    3  N  Y  0  N    -349.93088447352  8.6E-04  4.2E-05  1.3E-03
etot    4  N  Y  0  N    -349.93122521828  3.4E-04  2.7E-05  7.5E-04
etot    5  N  Y  0  N    -349.93129537380  7.0E-05  1.4E-05  3.4E-04
etot    6  N  Y  0  N    -349.93132731714  3.2E-05  1.1E-05  2.8E-04
etot    7  N  Y  0  N    -349.93134244808  1.5E-05  9.0E-06  1.3E-04
etot    8  N  Y  0  N    -349.93134990138  7.5E-06  8.1E-06  7.7E-05
etot    9  N  Y  0  N    -349.93135284469  2.9E-06  2.0E-06  2.8E-05
etot   10  N  N  0  N    -349.93135310954  2.6E-07  0.0E+00  0.0E+00
  
solvation phase SCF calculation with PCM ...
scf type: UDFT=wB97X+D/HF(LR)+HF(SR)+xB97(SR)+cB97+D (wB97X-D)
  
       i  u  d  i  g
       t  p  i  c  r                                 RMS    maximum
       e  d  i  u  i                       energy  density   DIIS  
       r  t  s  t  d       total energy    change  change    error 
  
etot    1  N  N  0  N    -349.96580698973           1.9E-04  4.8E-03
etot    2  Y  Y  0  N    -349.96992823612  4.1E-03  8.2E-05  2.1E-03
etot    3  Y  Y  0  N    -349.97055108410  6.2E-04  4.8E-05  1.4E-03
etot    4  N  Y  0  N    -349.97083328613  2.8E-04  3.2E-05  7.3E-04
etot    5  N  Y  0  N    -349.97092315419  9.0E-05  1.6E-05  3.2E-04
etot    6  N  Y  0  N    -349.97095839915  3.5E-05  1.2E-05  3.1E-04
etot    7  N  Y  0  N    -349.97097408856  1.6E-05  9.0E-06  1.5E-04
etot    8  N  Y  0  N    -349.97098139107  7.3E-06  7.0E-06  7.8E-05
etot    9  N  Y  0  N    -349.97098381526  2.4E-06  1.5E-06  3.1E-05
etot   10  N  N  0  N    -349.97098400963  1.9E-07  0.0E+00  0.0E+00
scf (UDFT) done.
ch (properties) done.
der1a (1-e 1st deriv.) done.
der1b (2-e 1st deriv.) done.
-------------------------------------------------------
calculation at perturbed geometry   4 of  66 follows...
nude (numerical derivatives) done.
onee (1-electron integrals) done.
probe (project orbitals) done.
grid (grid generation) done.
scf type: UDFT=wB97X+D/HF(LR)+HF(SR)+xB97(SR)+cB97+D (wB97X-D)
  
       i  u  d  i  g
       t  p  i  c  r                                 RMS    maximum
       e  d  i  u  i                       energy  density   DIIS  
       r  t  s  t  d       total energy    change  change    error 
  
etot    1  N  N  0  N    -349.92448417086           2.7E-04  5.8E-03
etot    2  Y  Y  0  N    -349.92994059939  5.5E-03  8.1E-05  2.9E-03
etot    3  N  Y  0  N    -349.93080426456  8.6E-04  4.1E-05  1.3E-03
etot    4  N  Y  0  N    -349.93112066837  3.2E-04  2.7E-05  7.6E-04
etot    5  N  Y  0  N    -349.93119421314  7.4E-05  1.4E-05  3.3E-04
etot    6  N  Y  0  N    -349.93122617448  3.2E-05  1.1E-05  2.7E-04
etot    7  N  Y  0  N    -349.93124137583  1.5E-05  8.8E-06  1.3E-04
etot    8  N  Y  0  N    -349.93124860453  7.2E-06  7.9E-06  7.4E-05
etot    9  N  Y  0  N    -349.93125148521  2.9E-06  2.0E-06  2.8E-05
etot   10  N  N  0  N    -349.93125175436  2.7E-07  0.0E+00  0.0E+00
  
solvation phase SCF calculation with PCM ...
scf type: UDFT=wB97X+D/HF(LR)+HF(SR)+xB97(SR)+cB97+D (wB97X-D)
  
       i  u  d  i  g
       t  p  i  c  r                                 RMS    maximum
       e  d  i  u  i                       energy  density   DIIS  
       r  t  s  t  d       total energy    change  change    error 
  
etot    1  N  N  0  N    -349.96577594153           1.9E-04  4.6E-03
etot    2  Y  Y  0  N    -349.96991579529  4.1E-03  8.2E-05  2.0E-03
etot    3  Y  Y  0  N    -349.97054634487  6.3E-04  4.8E-05  1.3E-03
etot    4  N  Y  0  N    -349.97084431751  3.0E-04  3.2E-05  7.3E-04
etot    5  N  Y  0  N    -349.97093417123  9.0E-05  1.6E-05  3.1E-04
etot    6  N  Y  0  N    -349.97096941602  3.5E-05  1.2E-05  3.0E-04
etot    7  N  Y  0  N    -349.97098510974  1.6E-05  9.0E-06  1.5E-04
etot    8  N  Y  0  N    -349.97099239334  7.3E-06  7.0E-06  7.6E-05
etot    9  N  Y  0  N    -349.97099484157  2.4E-06  1.5E-06  3.0E-05
etot   10  N  N  0  N    -349.97099504098  2.0E-07  0.0E+00  0.0E+00
scf (UDFT) done.
ch (properties) done.
der1a (1-e 1st deriv.) done.
der1b (2-e 1st deriv.) done.
-------------------------------------------------------
calculation at perturbed geometry   5 of  66 follows...
nude (numerical derivatives) done.
onee (1-electron integrals) done.
probe (project orbitals) done.
grid (grid generation) done.
scf type: UDFT=wB97X+D/HF(LR)+HF(SR)+xB97(SR)+cB97+D (wB97X-D)
  
       i  u  d  i  g
       t  p  i  c  r                                 RMS    maximum
       e  d  i  u  i                       energy  density   DIIS  
       r  t  s  t  d       total energy    change  change    error 
  
etot    1  N  N  0  N    -349.92661055545           2.7E-04  5.8E-03
etot    2  Y  Y  0  N    -349.93219351709  5.6E-03  8.3E-05  2.8E-03
etot    3  N  Y  0  N    -349.93305965312  8.7E-04  4.2E-05  1.3E-03
etot    4  N  Y  0  N    -349.93338662854  3.3E-04  2.5E-05  5.8E-04
etot    5  N  Y  0  N    -349.93343887910  5.2E-05  1.2E-05  2.7E-04
etot    6  N  Y  0  N    -349.93345732330  1.8E-05  6.4E-06  1.5E-04
etot    7  N  Y  0  N    -349.93346230271  5.0E-06  3.8E-06  6.1E-05
etot    8  N  N  0  N    -349.93346415058  1.8E-06  0.0E+00  0.0E+00
  
solvation phase SCF calculation with PCM ...
scf type: UDFT=wB97X+D/HF(LR)+HF(SR)+xB97(SR)+cB97+D (wB97X-D)
  
       i  u  d  i  g
       t  p  i  c  r                                 RMS    maximum
       e  d  i  u  i                       energy  density   DIIS  
       r  t  s  t  d       total energy    change  change    error 
  
etot    1  N  N  0  N    -349.96808019823           1.9E-04  4.7E-03
etot    2  Y  Y  0  N    -349.97221383498  4.1E-03  8.2E-05  2.0E-03
etot    3  Y  Y  0  N    -349.97281826138  6.0E-04  4.8E-05  1.3E-03
etot    4  N  Y  0  N    -349.97308896559  2.7E-04  3.0E-05  6.9E-04
etot    5  N  Y  0  N    -349.97316462173  7.6E-05  1.5E-05  3.1E-04
etot    6  N  Y  0  N    -349.97319263448  2.8E-05  9.6E-06  2.7E-04
etot    7  N  Y  0  N    -349.97320380399  1.1E-05  7.2E-06  1.3E-04
etot    8  N  Y  0  N    -349.97320898300  5.2E-06  6.0E-06  7.0E-05
etot    9  N  Y  0  N    -349.97321092344  1.9E-06  1.4E-06  2.8E-05
etot   10  N  N  0  N    -349.97321108631  1.6E-07  0.0E+00  0.0E+00
scf (UDFT) done.
ch (properties) done.
der1a (1-e 1st deriv.) done.
der1b (2-e 1st deriv.) done.
-------------------------------------------------------
calculation at perturbed geometry   6 of  66 follows...
nude (numerical derivatives) done.
onee (1-electron integrals) done.
probe (project orbitals) done.
grid (grid generation) done.
scf type: UDFT=wB97X+D/HF(LR)+HF(SR)+xB97(SR)+cB97+D (wB97X-D)
  
       i  u  d  i  g
       t  p  i  c  r                                 RMS    maximum
       e  d  i  u  i                       energy  density   DIIS  
       r  t  s  t  d       total energy    change  change    error 
  
etot    1  N  N  0  N    -349.92388136634           4.6E-04  6.2E-03
etot    2  Y  Y  0  N    -349.92941782129  5.5E-03  8.7E-05  3.0E-03
etot    3  N  Y  0  N    -349.93033793577  9.2E-04  4.6E-05  1.4E-03
etot    4  N  Y  0  N    -349.93069384080  3.6E-04  3.3E-05  9.5E-04
etot    5  N  Y  0  N    -349.93081349056  1.2E-04  1.9E-05  4.7E-04
etot    6  N  Y  0  N    -349.93087407107  6.1E-05  2.0E-05  3.9E-04
etot    7  N  Y  0  N    -349.93091211113  3.8E-05  1.6E-05  1.8E-04
etot    8  N  Y  0  N    -349.93092874873  1.7E-05  1.1E-05  8.7E-05
etot    9  N  Y  0  N    -349.93093311353  4.4E-06  2.3E-06  2.8E-05
etot   10  N  N  0  N    -349.93093349989  3.9E-07  0.0E+00  0.0E+00
  
solvation phase SCF calculation with PCM ...
scf type: UDFT=wB97X+D/HF(LR)+HF(SR)+xB97(SR)+cB97+D (wB97X-D)
  
       i  u  d  i  g
       t  p  i  c  r                                 RMS    maximum
       e  d  i  u  i                       energy  density   DIIS  
       r  t  s  t  d       total energy    change  change    error 
  
etot    1  N  N  0  N    -349.96527531650           1.9E-04  4.7E-03
etot    2  Y  Y  0  N    -349.96938524727  4.1E-03  8.3E-05  2.1E-03
etot    3  Y  Y  0  N    -349.97002820848  6.4E-04  5.0E-05  1.4E-03
etot    4  N  Y  0  N    -349.97033019861  3.0E-04  3.4E-05  7.6E-04
etot    5  N  Y  0  N    -349.97043225455  1.0E-04  1.8E-05  3.3E-04
etot    6  N  Y  0  N    -349.97047396591  4.2E-05  1.4E-05  3.3E-04
etot    7  N  Y  0  N    -349.97049416926  2.0E-05  1.1E-05  1.6E-04
etot    8  N  Y  0  N    -349.97050351340  9.3E-06  8.0E-06  8.2E-05
etot    9  N  Y  0  N    -349.97050643382  2.9E-06  1.6E-06  3.1E-05
etot   10  N  N  0  N    -349.97050667490  2.4E-07  0.0E+00  0.0E+00
scf (UDFT) done.
ch (properties) done.
der1a (1-e 1st deriv.) done.
der1b (2-e 1st deriv.) done.
-------------------------------------------------------
calculation at perturbed geometry   7 of  66 follows...
nude (numerical derivatives) done.
onee (1-electron integrals) done.
probe (project orbitals) done.
grid (grid generation) done.
scf type: UDFT=wB97X+D/HF(LR)+HF(SR)+xB97(SR)+cB97+D (wB97X-D)
  
       i  u  d  i  g
       t  p  i  c  r                                 RMS    maximum
       e  d  i  u  i                       energy  density   DIIS  
       r  t  s  t  d       total energy    change  change    error 
  
etot    1  N  N  0  N    -349.92435829154           2.7E-04  6.3E-03
etot    2  Y  Y  0  N    -349.93008320496  5.7E-03  8.3E-05  3.0E-03
etot    3  N  Y  0  N    -349.93102911765  9.5E-04  4.4E-05  1.4E-03
etot    4  N  Y  0  N    -349.93138344837  3.5E-04  3.0E-05  9.2E-04
etot    5  N  Y  0  N    -349.93148679471  1.0E-04  1.7E-05  4.5E-04
etot    6  N  Y  0  N    -349.93153679397  5.0E-05  1.7E-05  3.7E-04
etot    7  N  Y  0  N    -349.93156585184  2.9E-05  1.3E-05  1.6E-04
etot    8  N  Y  0  N    -349.93157897093  1.3E-05  9.6E-06  8.5E-05
etot    9  N  Y  0  N    -349.93158287788  3.9E-06  2.0E-06  2.5E-05
etot   10  N  N  0  N    -349.93158318477  3.1E-07  0.0E+00  0.0E+00
  
solvation phase SCF calculation with PCM ...
scf type: UDFT=wB97X+D/HF(LR)+HF(SR)+xB97(SR)+cB97+D (wB97X-D)
  
       i  u  d  i  g
       t  p  i  c  r                                 RMS    maximum
       e  d  i  u  i                       energy  density   DIIS  
       r  t  s  t  d       total energy    change  change    error 
  
etot    1  N  N  0  N    -349.96584344890           1.9E-04  4.6E-03
etot    2  Y  Y  0  N    -349.96993081094  4.1E-03  8.1E-05  2.0E-03
etot    3  Y  Y  0  N    -349.97055766912  6.3E-04  4.8E-05  1.4E-03
etot    4  N  Y  0  N    -349.97085096140  2.9E-04  3.2E-05  7.3E-04
etot    5  N  Y  0  N    -349.97094427593  9.3E-05  1.7E-05  3.2E-04
etot    6  N  Y  0  N    -349.97098100359  3.7E-05  1.2E-05  3.1E-04
etot    7  N  Y  0  N    -349.97099781759  1.7E-05  9.4E-06  1.5E-04
etot    8  N  Y  0  N    -349.97100549875  7.7E-06  7.0E-06  7.6E-05
etot    9  N  Y  0  N    -349.97100791561  2.4E-06  1.4E-06  2.9E-05
etot   10  N  N  0  N    -349.97100811400  2.0E-07  0.0E+00  0.0E+00
scf (UDFT) done.
ch (properties) done.
der1a (1-e 1st deriv.) done.
der1b (2-e 1st deriv.) done.
-------------------------------------------------------
calculation at perturbed geometry   8 of  66 follows...
nude (numerical derivatives) done.
onee (1-electron integrals) done.
probe (project orbitals) done.
grid (grid generation) done.
scf type: UDFT=wB97X+D/HF(LR)+HF(SR)+xB97(SR)+cB97+D (wB97X-D)
  
       i  u  d  i  g
       t  p  i  c  r                                 RMS    maximum
       e  d  i  u  i                       energy  density   DIIS  
       r  t  s  t  d       total energy    change  change    error 
  
etot    1  N  N  0  N    -349.92453079214           4.7E-04  5.6E-03
etot    2  Y  Y  0  N    -349.93001431942  5.5E-03  8.8E-05  2.9E-03
etot    3  N  Y  0  N    -349.93082612262  8.1E-04  4.4E-05  1.4E-03
etot    4  N  Y  0  N    -349.93115722817  3.3E-04  2.7E-05  6.3E-04
etot    5  N  Y  0  N    -349.93121269351  5.5E-05  1.3E-05  2.6E-04
etot    6  N  Y  0  N    -349.93123453526  2.2E-05  8.1E-06  1.9E-04
etot    7  N  Y  0  N    -349.93124211038  7.6E-06  5.4E-06  7.8E-05
etot    8  N  Y  0  N    -349.93124531096  3.2E-06  5.2E-06  5.1E-05
etot    9  N  Y  0  N    -349.93124678051  1.5E-06  1.8E-06  2.6E-05
etot   10  N  N  0  N    -349.93124698533  2.0E-07  0.0E+00  0.0E+00
  
solvation phase SCF calculation with PCM ...
scf type: UDFT=wB97X+D/HF(LR)+HF(SR)+xB97(SR)+cB97+D (wB97X-D)
  
       i  u  d  i  g
       t  p  i  c  r                                 RMS    maximum
       e  d  i  u  i                       energy  density   DIIS  
       r  t  s  t  d       total energy    change  change    error 
  
etot    1  N  N  0  N    -349.96595079071           2.0E-04  4.7E-03
etot    2  Y  Y  0  N    -349.97011793320  4.2E-03  8.3E-05  2.1E-03
etot    3  Y  Y  0  N    -349.97074395686  6.3E-04  4.9E-05  1.3E-03
etot    4  N  Y  0  N    -349.97102939353  2.9E-04  3.2E-05  7.3E-04
etot    5  N  Y  0  N    -349.97111544376  8.6E-05  1.6E-05  3.1E-04
etot    6  N  Y  0  N    -349.97114902389  3.4E-05  1.1E-05  3.0E-04
etot    7  N  Y  0  N    -349.97116354267  1.5E-05  8.7E-06  1.4E-04
etot    8  N  Y  0  N    -349.97117044153  6.9E-06  7.1E-06  7.7E-05
etot    9  N  Y  0  N    -349.97117287818  2.4E-06  1.6E-06  3.2E-05
etot   10  N  N  0  N    -349.97117308255  2.0E-07  0.0E+00  0.0E+00
scf (UDFT) done.
ch (properties) done.
der1a (1-e 1st deriv.) done.
der1b (2-e 1st deriv.) done.
-------------------------------------------------------
calculation at perturbed geometry   9 of  66 follows...
nude (numerical derivatives) done.
onee (1-electron integrals) done.
probe (project orbitals) done.
grid (grid generation) done.
scf type: UDFT=wB97X+D/HF(LR)+HF(SR)+xB97(SR)+cB97+D (wB97X-D)
  
       i  u  d  i  g
       t  p  i  c  r                                 RMS    maximum
       e  d  i  u  i                       energy  density   DIIS  
       r  t  s  t  d       total energy    change  change    error 
  
etot    1  N  N  0  N    -349.92454474590           2.6E-04  5.7E-03
etot    2  Y  Y  0  N    -349.93012904554  5.6E-03  8.2E-05  2.9E-03
etot    3  N  Y  0  N    -349.93096365575  8.3E-04  4.2E-05  1.2E-03
etot    4  N  Y  0  N    -349.93129800808  3.3E-04  2.7E-05  7.5E-04
etot    5  N  Y  0  N    -349.93136780484  7.0E-05  1.4E-05  3.3E-04
etot    6  N  Y  0  N    -349.93139922910  3.1E-05  1.1E-05  2.7E-04
etot    7  N  Y  0  N    -349.93141402261  1.5E-05  8.8E-06  1.3E-04
etot    8  N  Y  0  N    -349.93142129500  7.3E-06  8.0E-06  7.6E-05
etot    9  N  Y  0  N    -349.93142416814  2.9E-06  2.0E-06  2.7E-05
etot   10  N  N  0  N    -349.93142443079  2.6E-07  0.0E+00  0.0E+00
  
solvation phase SCF calculation with PCM ...
scf type: UDFT=wB97X+D/HF(LR)+HF(SR)+xB97(SR)+cB97+D (wB97X-D)
  
       i  u  d  i  g
       t  p  i  c  r                                 RMS    maximum
       e  d  i  u  i                       energy  density   DIIS  
       r  t  s  t  d       total energy    change  change    error 
  
etot    1  N  N  0  N    -349.96589874538           1.9E-04  4.7E-03
etot    2  Y  Y  0  N    -349.97001596000  4.1E-03  8.2E-05  2.0E-03
etot    3  Y  Y  0  N    -349.97064062755  6.2E-04  4.8E-05  1.3E-03
etot    4  N  Y  0  N    -349.97093424211  2.9E-04  3.2E-05  7.3E-04
etot    5  N  Y  0  N    -349.97102375173  9.0E-05  1.6E-05  3.2E-04
etot    6  N  Y  0  N    -349.97105878307  3.5E-05  1.2E-05  3.0E-04
etot    7  N  Y  0  N    -349.97107438180  1.6E-05  9.0E-06  1.5E-04
etot    8  N  Y  0  N    -349.97108163178  7.2E-06  6.9E-06  7.6E-05
etot    9  N  Y  0  N    -349.97108402350  2.4E-06  1.5E-06  3.0E-05
etot   10  N  N  0  N    -349.97108422222  2.0E-07  0.0E+00  0.0E+00
scf (UDFT) done.
ch (properties) done.
der1a (1-e 1st deriv.) done.
der1b (2-e 1st deriv.) done.
-------------------------------------------------------
calculation at perturbed geometry  10 of  66 follows...
nude (numerical derivatives) done.
onee (1-electron integrals) done.
probe (project orbitals) done.
grid (grid generation) done.
scf type: UDFT=wB97X+D/HF(LR)+HF(SR)+xB97(SR)+cB97+D (wB97X-D)
  
       i  u  d  i  g
       t  p  i  c  r                                 RMS    maximum
       e  d  i  u  i                       energy  density   DIIS  
       r  t  s  t  d       total energy    change  change    error 
  
etot    1  N  N  0  N    -349.92465032462           2.6E-04  5.9E-03
etot    2  Y  Y  0  N    -349.93004364727  5.4E-03  8.1E-05  2.9E-03
etot    3  N  Y  0  N    -349.93092568184  8.8E-04  4.1E-05  1.3E-03
etot    4  N  Y  0  N    -349.93124342746  3.2E-04  2.8E-05  7.6E-04
etot    5  N  Y  0  N    -349.93131677083  7.3E-05  1.4E-05  3.3E-04
etot    6  N  Y  0  N    -349.93134891427  3.2E-05  1.1E-05  2.7E-04
etot    7  N  Y  0  N    -349.93136410256  1.5E-05  8.8E-06  1.3E-04
etot    8  N  Y  0  N    -349.93137141469  7.3E-06  8.1E-06  7.6E-05
etot    9  N  Y  0  N    -349.93137434218  2.9E-06  2.0E-06  2.7E-05
etot   10  N  N  0  N    -349.93137461151  2.7E-07  0.0E+00  0.0E+00
  
solvation phase SCF calculation with PCM ...
scf type: UDFT=wB97X+D/HF(LR)+HF(SR)+xB97(SR)+cB97+D (wB97X-D)
  
       i  u  d  i  g
       t  p  i  c  r                                 RMS    maximum
       e  d  i  u  i                       energy  density   DIIS  
       r  t  s  t  d       total energy    change  change    error 
  
etot    1  N  N  0  N    -349.96587923952           1.9E-04  4.7E-03
etot    2  Y  Y  0  N    -349.97002066564  4.1E-03  8.2E-05  2.1E-03
etot    3  Y  Y  0  N    -349.97064912087  6.3E-04  4.8E-05  1.4E-03
etot    4  N  Y  0  N    -349.97093787750  2.9E-04  3.2E-05  7.4E-04
etot    5  N  Y  0  N    -349.97102803180  9.0E-05  1.6E-05  3.2E-04
etot    6  N  Y  0  N    -349.97106348769  3.5E-05  1.2E-05  3.0E-04
etot    7  N  Y  0  N    -349.97107927651  1.6E-05  9.0E-06  1.5E-04
etot    8  N  Y  0  N    -349.97108659363  7.3E-06  7.0E-06  7.7E-05
etot    9  N  Y  0  N    -349.97108906455  2.5E-06  1.5E-06  3.0E-05
etot   10  N  N  0  N    -349.97108926531  2.0E-07  0.0E+00  0.0E+00
scf (UDFT) done.
ch (properties) done.
der1a (1-e 1st deriv.) done.
der1b (2-e 1st deriv.) done.
-------------------------------------------------------
calculation at perturbed geometry  11 of  66 follows...
nude (numerical derivatives) done.
onee (1-electron integrals) done.
probe (project orbitals) done.
grid (grid generation) done.
scf type: UDFT=wB97X+D/HF(LR)+HF(SR)+xB97(SR)+cB97+D (wB97X-D)
  
       i  u  d  i  g
       t  p  i  c  r                                 RMS    maximum
       e  d  i  u  i                       energy  density   DIIS  
       r  t  s  t  d       total energy    change  change    error 
  
etot    1  N  N  0  N    -349.92525570509           4.6E-04  6.0E-03
etot    2  Y  Y  0  N    -349.93073260406  5.5E-03  8.7E-05  2.9E-03
etot    3  N  Y  0  N    -349.93160065816  8.7E-04  4.4E-05  1.3E-03
etot    4  N  Y  0  N    -349.93192695407  3.3E-04  2.9E-05  7.7E-04
etot    5  N  Y  0  N    -349.93200238291  7.5E-05  1.5E-05  3.4E-04
etot    6  N  Y  0  N    -349.93203586308  3.3E-05  1.2E-05  2.7E-04
etot    7  N  Y  0  N    -349.93205170110  1.6E-05  9.2E-06  1.3E-04
etot    8  N  Y  0  N    -349.93205929978  7.6E-06  8.2E-06  7.7E-05
etot    9  N  Y  0  N    -349.93206226729  3.0E-06  2.1E-06  2.7E-05
etot   10  N  N  0  N    -349.93206252877  2.6E-07  0.0E+00  0.0E+00
  
solvation phase SCF calculation with PCM ...
scf type: UDFT=wB97X+D/HF(LR)+HF(SR)+xB97(SR)+cB97+D (wB97X-D)
  
       i  u  d  i  g
       t  p  i  c  r                                 RMS    maximum
       e  d  i  u  i                       energy  density   DIIS  
       r  t  s  t  d       total energy    change  change    error 
  
etot    1  N  N  0  N    -349.96656101235           2.0E-04  4.7E-03
etot    2  Y  Y  0  N    -349.97069589747  4.1E-03  8.3E-05  2.0E-03
etot    3  Y  Y  0  N    -349.97132306363  6.3E-04  4.9E-05  1.3E-03
etot    4  N  Y  0  N    -349.97161381464  2.9E-04  3.3E-05  7.2E-04
etot    5  N  Y  0  N    -349.97170360649  9.0E-05  1.7E-05  3.1E-04
etot    6  N  Y  0  N    -349.97173872459  3.5E-05  1.2E-05  3.0E-04
etot    7  N  Y  0  N    -349.97175426838  1.6E-05  9.1E-06  1.4E-04
etot    8  N  Y  0  N    -349.97176146364  7.2E-06  7.0E-06  7.5E-05
etot    9  N  Y  0  N    -349.97176384465  2.4E-06  1.5E-06  3.0E-05
etot   10  N  N  0  N    -349.97176404012  2.0E-07  0.0E+00  0.0E+00
scf (UDFT) done.
ch (properties) done.
der1a (1-e 1st deriv.) done.
der1b (2-e 1st deriv.) done.
-------------------------------------------------------
calculation at perturbed geometry  12 of  66 follows...
nude (numerical derivatives) done.
onee (1-electron integrals) done.
probe (project orbitals) done.
grid (grid generation) done.
scf type: UDFT=wB97X+D/HF(LR)+HF(SR)+xB97(SR)+cB97+D (wB97X-D)
  
       i  u  d  i  g
       t  p  i  c  r                                 RMS    maximum
       e  d  i  u  i                       energy  density   DIIS  
       r  t  s  t  d       total energy    change  change    error 
  
etot    1  N  N  0  N    -349.92535256744           2.6E-04  5.6E-03
etot    2  Y  Y  0  N    -349.93077986159  5.4E-03  8.1E-05  2.9E-03
etot    3  N  Y  0  N    -349.93164781980  8.7E-04  4.2E-05  1.3E-03
etot    4  N  Y  0  N    -349.93196760837  3.2E-04  2.7E-05  7.4E-04
etot    5  N  Y  0  N    -349.93203787419  7.0E-05  1.4E-05  3.3E-04
etot    6  N  Y  0  N    -349.93206855038  3.1E-05  1.1E-05  2.7E-04
etot    7  N  Y  0  N    -349.93208247117  1.4E-05  8.4E-06  1.3E-04
etot    8  N  Y  0  N    -349.93208923839  6.8E-06  7.7E-06  7.4E-05
etot    9  N  Y  0  N    -349.93209204929  2.8E-06  2.1E-06  2.9E-05
etot   10  N  N  0  N    -349.93209234672  3.0E-07  0.0E+00  0.0E+00
  
solvation phase SCF calculation with PCM ...
scf type: UDFT=wB97X+D/HF(LR)+HF(SR)+xB97(SR)+cB97+D (wB97X-D)
  
       i  u  d  i  g
       t  p  i  c  r                                 RMS    maximum
       e  d  i  u  i                       energy  density   DIIS  
       r  t  s  t  d       total energy    change  change    error 
  
etot    1  N  N  0  N    -349.96657150642           1.9E-04  4.7E-03
etot    2  Y  Y  0  N    -349.97069526106  4.1E-03  8.2E-05  2.1E-03
etot    3  Y  Y  0  N    -349.97132173184  6.3E-04  4.8E-05  1.4E-03
etot    4  N  Y  0  N    -349.97161153980  2.9E-04  3.2E-05  7.4E-04
etot    5  N  Y  0  N    -349.97170122498  9.0E-05  1.6E-05  3.2E-04
etot    6  N  Y  0  N    -349.97173648102  3.5E-05  1.2E-05  3.1E-04
etot    7  N  Y  0  N    -349.97175223787  1.6E-05  9.0E-06  1.5E-04
etot    8  N  Y  0  N    -349.97175959698  7.4E-06  7.0E-06  7.8E-05
etot    9  N  Y  0  N    -349.97176208737  2.5E-06  1.5E-06  3.0E-05
etot   10  N  N  0  N    -349.97176229396  2.1E-07  0.0E+00  0.0E+00
scf (UDFT) done.
ch (properties) done.
der1a (1-e 1st deriv.) done.
der1b (2-e 1st deriv.) done.
-------------------------------------------------------
calculation at perturbed geometry  13 of  66 follows...
nude (numerical derivatives) done.
onee (1-electron integrals) done.
probe (project orbitals) done.
grid (grid generation) done.
scf type: UDFT=wB97X+D/HF(LR)+HF(SR)+xB97(SR)+cB97+D (wB97X-D)
  
       i  u  d  i  g
       t  p  i  c  r                                 RMS    maximum
       e  d  i  u  i                       energy  density   DIIS  
       r  t  s  t  d       total energy    change  change    error 
  
etot    1  N  N  0  N    -349.92543188452           2.6E-04  5.8E-03
etot    2  Y  Y  0  N    -349.93072477256  5.3E-03  8.0E-05  2.9E-03
etot    3  N  Y  0  N    -349.93158838308  8.6E-04  4.1E-05  1.2E-03
etot    4  N  Y  0  N    -349.93190115523  3.1E-04  2.7E-05  7.5E-04
etot    5  N  Y  0  N    -349.93197377420  7.3E-05  1.4E-05  3.3E-04
etot    6  N  Y  0  N    -349.93200616543  3.2E-05  1.1E-05  2.8E-04
etot    7  N  Y  0  N    -349.93202124662  1.5E-05  9.0E-06  1.3E-04
etot    8  N  Y  0  N    -349.93202865857  7.4E-06  8.0E-06  7.6E-05
etot    9  N  Y  0  N    -349.93203155054  2.9E-06  2.0E-06  2.7E-05
etot   10  N  N  0  N    -349.93203181129  2.6E-07  0.0E+00  0.0E+00
  
solvation phase SCF calculation with PCM ...
scf type: UDFT=wB97X+D/HF(LR)+HF(SR)+xB97(SR)+cB97+D (wB97X-D)
  
       i  u  d  i  g
       t  p  i  c  r                                 RMS    maximum
       e  d  i  u  i                       energy  density   DIIS  
       r  t  s  t  d       total energy    change  change    error 
  
etot    1  N  N  0  N    -349.96651301184           1.9E-04  4.7E-03
etot    2  Y  Y  0  N    -349.97064142764  4.1E-03  8.2E-05  2.1E-03
etot    3  Y  Y  0  N    -349.97126812144  6.3E-04  4.8E-05  1.4E-03
etot    4  N  Y  0  N    -349.97155649836  2.9E-04  3.2E-05  7.3E-04
etot    5  N  Y  0  N    -349.97164637152  9.0E-05  1.6E-05  3.2E-04
etot    6  N  Y  0  N    -349.97168165012  3.5E-05  1.2E-05  3.1E-04
etot    7  N  Y  0  N    -349.97169738905  1.6E-05  9.0E-06  1.5E-04
etot    8  N  Y  0  N    -349.97170470946  7.3E-06  7.0E-06  7.8E-05
etot    9  N  Y  0  N    -349.97170715253  2.4E-06  1.5E-06  3.0E-05
etot   10  N  N  0  N    -349.97170734959  2.0E-07  0.0E+00  0.0E+00
scf (UDFT) done.
ch (properties) done.
der1a (1-e 1st deriv.) done.
der1b (2-e 1st deriv.) done.
-------------------------------------------------------
calculation at perturbed geometry  14 of  66 follows...
nude (numerical derivatives) done.
onee (1-electron integrals) done.
probe (project orbitals) done.
grid (grid generation) done.
scf type: UDFT=wB97X+D/HF(LR)+HF(SR)+xB97(SR)+cB97+D (wB97X-D)
  
       i  u  d  i  g
       t  p  i  c  r                                 RMS    maximum
       e  d  i  u  i                       energy  density   DIIS  
       r  t  s  t  d       total energy    change  change    error 
  
etot    1  N  N  0  N    -349.92542113958           2.6E-04  5.8E-03
etot    2  Y  Y  0  N    -349.93070954494  5.3E-03  8.0E-05  2.9E-03
etot    3  N  Y  0  N    -349.93159256140  8.8E-04  4.1E-05  1.2E-03
etot    4  N  Y  0  N    -349.93189062230  3.0E-04  2.7E-05  7.6E-04
etot    5  N  Y  0  N    -349.93196228398  7.2E-05  1.4E-05  3.3E-04
etot    6  N  Y  0  N    -349.93199402490  3.2E-05  1.1E-05  2.7E-04
etot    7  N  Y  0  N    -349.93200873213  1.5E-05  8.8E-06  1.3E-04
etot    8  N  Y  0  N    -349.93201590601  7.2E-06  7.9E-06  7.4E-05
etot    9  N  Y  0  N    -349.93201876896  2.9E-06  2.0E-06  2.8E-05
etot   10  N  N  0  N    -349.93201903387  2.6E-07  0.0E+00  0.0E+00
  
solvation phase SCF calculation with PCM ...
scf type: UDFT=wB97X+D/HF(LR)+HF(SR)+xB97(SR)+cB97+D (wB97X-D)
  
       i  u  d  i  g
       t  p  i  c  r                                 RMS    maximum
       e  d  i  u  i                       energy  density   DIIS  
       r  t  s  t  d       total energy    change  change    error 
  
etot    1  N  N  0  N    -349.96651621486           1.9E-04  4.7E-03
etot    2  Y  Y  0  N    -349.97064911790  4.1E-03  8.2E-05  2.0E-03
etot    3  Y  Y  0  N    -349.97127687905  6.3E-04  4.8E-05  1.3E-03
etot    4  N  Y  0  N    -349.97156693050  2.9E-04  3.2E-05  7.3E-04
etot    5  N  Y  0  N    -349.97165679083  9.0E-05  1.6E-05  3.2E-04
etot    6  N  Y  0  N    -349.97169199680  3.5E-05  1.2E-05  3.0E-04
etot    7  N  Y  0  N    -349.97170764102  1.6E-05  8.9E-06  1.5E-04
etot    8  N  Y  0  N    -349.97171489107  7.3E-06  6.9E-06  7.6E-05
etot    9  N  Y  0  N    -349.97171731345  2.4E-06  1.5E-06  3.0E-05
etot   10  N  N  0  N    -349.97171750960  2.0E-07  0.0E+00  0.0E+00
scf (UDFT) done.
ch (properties) done.
der1a (1-e 1st deriv.) done.
der1b (2-e 1st deriv.) done.
-------------------------------------------------------
calculation at perturbed geometry  15 of  66 follows...
nude (numerical derivatives) done.
onee (1-electron integrals) done.
probe (project orbitals) done.
grid (grid generation) done.
scf type: UDFT=wB97X+D/HF(LR)+HF(SR)+xB97(SR)+cB97+D (wB97X-D)
  
       i  u  d  i  g
       t  p  i  c  r                                 RMS    maximum
       e  d  i  u  i                       energy  density   DIIS  
       r  t  s  t  d       total energy    change  change    error 
  
etot    1  N  N  0  N    -349.92522412429           2.6E-04  5.8E-03
[...]
       r  t  s  t  d       total energy    change  change    error 
  
etot    1  N  N  0  N    -349.92650706647           2.7E-04  5.1E-03
etot    2  Y  Y  0  N    -349.93215147804  5.6E-03  8.2E-05  2.8E-03
etot    3  N  Y  0  N    -349.93295266128  8.0E-04  4.1E-05  1.3E-03
etot    4  N  Y  0  N    -349.93325345523  3.0E-04  2.5E-05  6.2E-04
etot    5  N  Y  0  N    -349.93330372647  5.0E-05  1.1E-05  2.7E-04
etot    6  N  Y  0  N    -349.93332155690  1.8E-05  6.3E-06  1.8E-04
etot    7  N  Y  0  N    -349.93332662682  5.1E-06  4.0E-06  6.9E-05
etot    8  N  N  0  N    -349.93332878528  2.2E-06  0.0E+00  0.0E+00
  
solvation phase SCF calculation with PCM ...
scf type: UDFT=wB97X+D/HF(LR)+HF(SR)+xB97(SR)+cB97+D (wB97X-D)
  
       i  u  d  i  g
       t  p  i  c  r                                 RMS    maximum
       e  d  i  u  i                       energy  density   DIIS  
       r  t  s  t  d       total energy    change  change    error 
  
etot    1  N  N  0  N    -349.96788032202           1.9E-04  4.3E-03
etot    2  Y  Y  0  N    -349.97195010396  4.1E-03  8.1E-05  2.1E-03
etot    3  Y  Y  0  N    -349.97253469759  5.8E-04  4.7E-05  1.1E-03
etot    4  N  Y  0  N    -349.97280676573  2.7E-04  3.0E-05  6.7E-04
etot    5  N  Y  0  N    -349.97287862126  7.2E-05  1.5E-05  2.9E-04
etot    6  N  Y  0  N    -349.97290503831  2.6E-05  9.2E-06  2.6E-04
etot    7  N  Y  0  N    -349.97291539092  1.0E-05  6.7E-06  1.2E-04
etot    8  N  Y  0  N    -349.97292015815  4.8E-06  5.7E-06  6.9E-05
etot    9  N  Y  0  N    -349.97292198970  1.8E-06  1.4E-06  2.9E-05
etot   10  N  N  0  N    -349.97292217168  1.8E-07  0.0E+00  0.0E+00
scf (UDFT) done.
ch (properties) done.
der1a (1-e 1st deriv.) done.
der1b (2-e 1st deriv.) done.
-------------------------------------------------------
calculation at perturbed geometry  61 of  66 follows...
nude (numerical derivatives) done.
onee (1-electron integrals) done.
probe (project orbitals) done.
grid (grid generation) done.
scf type: UDFT=wB97X+D/HF(LR)+HF(SR)+xB97(SR)+cB97+D (wB97X-D)
  
       i  u  d  i  g
       t  p  i  c  r                                 RMS    maximum
       e  d  i  u  i                       energy  density   DIIS  
       r  t  s  t  d       total energy    change  change    error 
  
etot    1  N  N  0  N    -349.92564471406           2.6E-04  5.8E-03
etot    2  Y  Y  0  N    -349.93087542767  5.2E-03  8.0E-05  2.9E-03
etot    3  N  Y  0  N    -349.93174652309  8.7E-04  4.1E-05  1.2E-03
etot    4  N  Y  0  N    -349.93204764934  3.0E-04  2.7E-05  7.5E-04
etot    5  N  Y  0  N    -349.93211897550  7.1E-05  1.4E-05  3.3E-04
etot    6  N  Y  0  N    -349.93215055837  3.2E-05  1.1E-05  2.7E-04
etot    7  N  Y  0  N    -349.93216505285  1.4E-05  8.7E-06  1.3E-04
etot    8  N  Y  0  N    -349.93217216872  7.1E-06  7.9E-06  7.5E-05
etot    9  N  Y  0  N    -349.93217498419  2.8E-06  2.0E-06  2.7E-05
etot   10  N  N  0  N    -349.93217524345  2.6E-07  0.0E+00  0.0E+00
  
solvation phase SCF calculation with PCM ...
scf type: UDFT=wB97X+D/HF(LR)+HF(SR)+xB97(SR)+cB97+D (wB97X-D)
  
       i  u  d  i  g
       t  p  i  c  r                                 RMS    maximum
       e  d  i  u  i                       energy  density   DIIS  
       r  t  s  t  d       total energy    change  change    error 
  
etot    1  N  N  0  N    -349.96668223189           1.9E-04  4.7E-03
etot    2  Y  Y  0  N    -349.97080902664  4.1E-03  8.2E-05  2.1E-03
etot    3  Y  Y  0  N    -349.97143574042  6.3E-04  4.8E-05  1.4E-03
etot    4  N  Y  0  N    -349.97172453340  2.9E-04  3.2E-05  7.3E-04
etot    5  N  Y  0  N    -349.97181395434  8.9E-05  1.6E-05  3.2E-04
etot    6  N  Y  0  N    -349.97184899671  3.5E-05  1.2E-05  3.0E-04
etot    7  N  Y  0  N    -349.97186455272  1.6E-05  8.9E-06  1.5E-04
etot    8  N  Y  0  N    -349.97187178456  7.2E-06  6.9E-06  7.7E-05
etot    9  N  Y  0  N    -349.97187420045  2.4E-06  1.5E-06  3.0E-05
etot   10  N  N  0  N    -349.97187439788  2.0E-07  0.0E+00  0.0E+00
scf (UDFT) done.
ch (properties) done.
der1a (1-e 1st deriv.) done.
der1b (2-e 1st deriv.) done.
-------------------------------------------------------
calculation at perturbed geometry  62 of  66 follows...
nude (numerical derivatives) done.
onee (1-electron integrals) done.
probe (project orbitals) done.
grid (grid generation) done.
scf type: UDFT=wB97X+D/HF(LR)+HF(SR)+xB97(SR)+cB97+D (wB97X-D)
  
       i  u  d  i  g
       t  p  i  c  r                                 RMS    maximum
       e  d  i  u  i                       energy  density   DIIS  
       r  t  s  t  d       total energy    change  change    error 
  
etot    1  N  N  0  N    -349.92560347104           2.6E-04  5.8E-03
etot    2  Y  Y  0  N    -349.93087716240  5.3E-03  7.9E-05  2.9E-03
etot    3  N  Y  0  N    -349.93175609053  8.8E-04  4.1E-05  1.2E-03
etot    4  N  Y  0  N    -349.93205673058  3.0E-04  2.8E-05  7.6E-04
etot    5  N  Y  0  N    -349.93213005704  7.3E-05  1.4E-05  3.3E-04
etot    6  N  Y  0  N    -349.93216270348  3.3E-05  1.1E-05  2.8E-04
etot    7  N  Y  0  N    -349.93217794733  1.5E-05  9.0E-06  1.3E-04
etot    8  N  Y  0  N    -349.93218542787  7.5E-06  8.0E-06  7.6E-05
etot    9  N  Y  0  N    -349.93218835672  2.9E-06  2.0E-06  2.7E-05
etot   10  N  N  0  N    -349.93218862439  2.7E-07  0.0E+00  0.0E+00
  
solvation phase SCF calculation with PCM ...
scf type: UDFT=wB97X+D/HF(LR)+HF(SR)+xB97(SR)+cB97+D (wB97X-D)
  
       i  u  d  i  g
       t  p  i  c  r                                 RMS    maximum
       e  d  i  u  i                       energy  density   DIIS  
       r  t  s  t  d       total energy    change  change    error 
  
etot    1  N  N  0  N    -349.96667039540           1.9E-04  4.7E-03
etot    2  Y  Y  0  N    -349.97080525988  4.1E-03  8.2E-05  2.0E-03
etot    3  Y  Y  0  N    -349.97143366729  6.3E-04  4.8E-05  1.3E-03
etot    4  N  Y  0  N    -349.97172324778  2.9E-04  3.2E-05  7.3E-04
etot    5  N  Y  0  N    -349.97181359942  9.0E-05  1.6E-05  3.2E-04
etot    6  N  Y  0  N    -349.97184905555  3.5E-05  1.2E-05  3.0E-04
etot    7  N  Y  0  N    -349.97186489329  1.6E-05  9.0E-06  1.5E-04
etot    8  N  Y  0  N    -349.97187223946  7.3E-06  7.0E-06  7.7E-05
etot    9  N  Y  0  N    -349.97187468779  2.4E-06  1.5E-06  3.0E-05
etot   10  N  N  0  N    -349.97187488569  2.0E-07  0.0E+00  0.0E+00
scf (UDFT) done.
ch (properties) done.
der1a (1-e 1st deriv.) done.
der1b (2-e 1st deriv.) done.
-------------------------------------------------------
calculation at perturbed geometry  63 of  66 follows...
nude (numerical derivatives) done.
onee (1-electron integrals) done.
probe (project orbitals) done.
grid (grid generation) done.
scf type: UDFT=wB97X+D/HF(LR)+HF(SR)+xB97(SR)+cB97+D (wB97X-D)
  
       i  u  d  i  g
       t  p  i  c  r                                 RMS    maximum
       e  d  i  u  i                       energy  density   DIIS  
       r  t  s  t  d       total energy    change  change    error 
  
etot    1  N  N  0  N    -349.92624545680           2.6E-04  5.8E-03
etot    2  Y  Y  0  N    -349.93142227184  5.2E-03  8.0E-05  2.8E-03
etot    3  N  Y  0  N    -349.93227200210  8.5E-04  4.0E-05  1.3E-03
etot    4  N  Y  0  N    -349.93258445902  3.1E-04  2.7E-05  7.2E-04
etot    5  N  Y  0  N    -349.93265225054  6.8E-05  1.3E-05  3.1E-04
etot    6  N  Y  0  N    -349.93268126665  2.9E-05  1.1E-05  2.6E-04
etot    7  N  Y  0  N    -349.93269478649  1.4E-05  8.3E-06  1.2E-04
etot    8  N  Y  0  N    -349.93270124264  6.5E-06  7.4E-06  7.1E-05
etot    9  N  Y  0  N    -349.93270381299  2.6E-06  1.7E-06  2.8E-05
etot   10  N  N  0  N    -349.93270402788  2.1E-07  0.0E+00  0.0E+00
  
solvation phase SCF calculation with PCM ...
scf type: UDFT=wB97X+D/HF(LR)+HF(SR)+xB97(SR)+cB97+D (wB97X-D)
  
       i  u  d  i  g
       t  p  i  c  r                                 RMS    maximum
       e  d  i  u  i                       energy  density   DIIS  
       r  t  s  t  d       total energy    change  change    error 
  
etot    1  N  N  0  N    -349.96668987786           1.9E-04  4.7E-03
etot    2  Y  Y  0  N    -349.97076610516  4.1E-03  8.1E-05  2.0E-03
etot    3  Y  Y  0  N    -349.97138313079  6.2E-04  4.8E-05  1.3E-03
etot    4  N  Y  0  N    -349.97166839218  2.9E-04  3.2E-05  7.3E-04
etot    5  N  Y  0  N    -349.97175626526  8.8E-05  1.6E-05  3.1E-04
etot    6  N  Y  0  N    -349.97179063842  3.4E-05  1.1E-05  3.0E-04
etot    7  N  Y  0  N    -349.97180581437  1.5E-05  8.8E-06  1.4E-04
etot    8  N  Y  0  N    -349.97181282553  7.0E-06  6.8E-06  7.5E-05
etot    9  N  Y  0  N    -349.97181517851  2.4E-06  1.5E-06  3.0E-05
etot   10  N  N  0  N    -349.97181537193  1.9E-07  0.0E+00  0.0E+00
scf (UDFT) done.
ch (properties) done.
der1a (1-e 1st deriv.) done.
der1b (2-e 1st deriv.) done.
-------------------------------------------------------
calculation at perturbed geometry  64 of  66 follows...
nude (numerical derivatives) done.
onee (1-electron integrals) done.
probe (project orbitals) done.
grid (grid generation) done.
scf type: UDFT=wB97X+D/HF(LR)+HF(SR)+xB97(SR)+cB97+D (wB97X-D)
  
       i  u  d  i  g
       t  p  i  c  r                                 RMS    maximum
       e  d  i  u  i                       energy  density   DIIS  
       r  t  s  t  d       total energy    change  change    error 
  
etot    1  N  N  0  N    -349.92484556735           2.7E-04  5.8E-03
etot    2  Y  Y  0  N    -349.93019058888  5.3E-03  8.0E-05  3.0E-03
etot    3  N  Y  0  N    -349.93109478409  9.0E-04  4.2E-05  1.2E-03
etot    4  N  Y  0  N    -349.93138975643  2.9E-04  2.8E-05  7.7E-04
etot    5  N  Y  0  N    -349.93146651750  7.7E-05  1.5E-05  3.5E-04
etot    6  N  Y  0  N    -349.93150164576  3.5E-05  1.2E-05  2.9E-04
etot    7  N  Y  0  N    -349.93151786057  1.6E-05  9.5E-06  1.4E-04
etot    8  N  Y  0  N    -349.93152602004  8.2E-06  8.3E-06  7.9E-05
etot    9  N  Y  0  N    -349.93152919229  3.2E-06  1.9E-06  3.0E-05
etot   10  N  N  0  N    -349.93152947689  2.8E-07  0.0E+00  0.0E+00
  
solvation phase SCF calculation with PCM ...
scf type: UDFT=wB97X+D/HF(LR)+HF(SR)+xB97(SR)+cB97+D (wB97X-D)
  
       i  u  d  i  g
       t  p  i  c  r                                 RMS    maximum
       e  d  i  u  i                       energy  density   DIIS  
       r  t  s  t  d       total energy    change  change    error 
  
etot    1  N  N  0  N    -349.96653163840           1.9E-04  4.7E-03
etot    2  Y  Y  0  N    -349.97071656644  4.2E-03  8.3E-05  2.1E-03
etot    3  Y  Y  0  N    -349.97135464850  6.4E-04  4.9E-05  1.3E-03
etot    4  N  Y  0  N    -349.97164938940  2.9E-04  3.2E-05  7.4E-04
etot    5  N  Y  0  N    -349.97174101973  9.2E-05  1.6E-05  3.2E-04
etot    6  N  Y  0  N    -349.97177702839  3.6E-05  1.2E-05  3.1E-04
etot    7  N  Y  0  N    -349.97179313791  1.6E-05  9.1E-06  1.5E-04
etot    8  N  Y  0  N    -349.97180064238  7.5E-06  7.1E-06  7.8E-05
etot    9  N  Y  0  N    -349.97180315561  2.5E-06  1.5E-06  3.0E-05
etot   10  N  N  0  N    -349.97180335132  2.0E-07  0.0E+00  0.0E+00
scf (UDFT) done.
ch (properties) done.
der1a (1-e 1st deriv.) done.
der1b (2-e 1st deriv.) done.
-------------------------------------------------------
calculation at perturbed geometry  65 of  66 follows...
nude (numerical derivatives) done.
onee (1-electron integrals) done.
probe (project orbitals) done.
grid (grid generation) done.
scf type: UDFT=wB97X+D/HF(LR)+HF(SR)+xB97(SR)+cB97+D (wB97X-D)
  
       i  u  d  i  g
       t  p  i  c  r                                 RMS    maximum
       e  d  i  u  i                       energy  density   DIIS  
       r  t  s  t  d       total energy    change  change    error 
  
etot    1  N  N  0  N    -349.92554628877           2.6E-04  5.8E-03
etot    2  Y  Y  0  N    -349.93079550229  5.2E-03  7.8E-05  2.9E-03
etot    3  N  Y  0  N    -349.93163508708  8.4E-04  4.1E-05  1.2E-03
etot    4  N  Y  0  N    -349.93191821269  2.8E-04  2.8E-05  7.6E-04
etot    5  N  Y  0  N    -349.93199189893  7.4E-05  1.4E-05  3.3E-04
etot    6  N  Y  0  N    -349.93202493678  3.3E-05  1.1E-05  2.8E-04
etot    7  N  Y  0  N    -349.93204042295  1.5E-05  9.2E-06  1.3E-04
etot    8  N  Y  0  N    -349.93204812617  7.7E-06  8.2E-06  7.7E-05
etot    9  N  Y  0  N    -349.93205114595  3.0E-06  1.9E-06  2.8E-05
etot   10  N  N  0  N    -349.93205140319  2.6E-07  0.0E+00  0.0E+00
  
solvation phase SCF calculation with PCM ...
scf type: UDFT=wB97X+D/HF(LR)+HF(SR)+xB97(SR)+cB97+D (wB97X-D)
  
       i  u  d  i  g
       t  p  i  c  r                                 RMS    maximum
       e  d  i  u  i                       energy  density   DIIS  
       r  t  s  t  d       total energy    change  change    error 
  
etot    1  N  N  0  N    -349.96669863204           1.9E-04  4.7E-03
etot    2  Y  Y  0  N    -349.97080346817  4.1E-03  8.2E-05  2.1E-03
etot    3  Y  Y  0  N    -349.97142318288  6.2E-04  4.8E-05  1.3E-03
etot    4  N  Y  0  N    -349.97171137740  2.9E-04  3.2E-05  7.3E-04
etot    5  N  Y  0  N    -349.97179984013  8.8E-05  1.6E-05  3.2E-04
etot    6  N  Y  0  N    -349.97183447363  3.5E-05  1.2E-05  3.0E-04
etot    7  N  Y  0  N    -349.97184991555  1.5E-05  8.9E-06  1.5E-04
etot    8  N  Y  0  N    -349.97185711751  7.2E-06  6.9E-06  7.7E-05
etot    9  N  Y  0  N    -349.97185955110  2.4E-06  1.5E-06  3.0E-05
etot   10  N  N  0  N    -349.97185975256  2.0E-07  0.0E+00  0.0E+00
scf (UDFT) done.
ch (properties) done.
der1a (1-e 1st deriv.) done.
der1b (2-e 1st deriv.) done.
-------------------------------------------------------
calculation at perturbed geometry  66 of  66 follows...
nude (numerical derivatives) done.
onee (1-electron integrals) done.
probe (project orbitals) done.
grid (grid generation) done.
scf type: UDFT=wB97X+D/HF(LR)+HF(SR)+xB97(SR)+cB97+D (wB97X-D)
  
       i  u  d  i  g
       t  p  i  c  r                                 RMS    maximum
       e  d  i  u  i                       energy  density   DIIS  
       r  t  s  t  d       total energy    change  change    error 
  
etot    1  N  N  0  N    -349.92562907692           2.6E-04  5.8E-03
etot    2  Y  Y  0  N    -349.93089267837  5.3E-03  8.1E-05  2.9E-03
etot    3  N  Y  0  N    -349.93181304641  9.2E-04  4.1E-05  1.2E-03
etot    4  N  Y  0  N    -349.93213392176  3.2E-04  2.7E-05  7.3E-04
etot    5  N  Y  0  N    -349.93220461644  7.1E-05  1.4E-05  3.2E-04
etot    6  N  Y  0  N    -349.93223562005  3.1E-05  1.1E-05  2.6E-04
etot    7  N  Y  0  N    -349.93224983748  1.4E-05  8.5E-06  1.3E-04
etot    8  N  Y  0  N    -349.93225669922  6.9E-06  7.6E-06  7.3E-05
etot    9  N  Y  0  N    -349.93225941269  2.7E-06  1.8E-06  2.8E-05
etot   10  N  N  0  N    -349.93225965953  2.5E-07  0.0E+00  0.0E+00
  
solvation phase SCF calculation with PCM ...
scf type: UDFT=wB97X+D/HF(LR)+HF(SR)+xB97(SR)+cB97+D (wB97X-D)
  
       i  u  d  i  g
       t  p  i  c  r                                 RMS    maximum
       e  d  i  u  i                       energy  density   DIIS  
       r  t  s  t  d       total energy    change  change    error 
  
etot    1  N  N  0  N    -349.96660269981           1.9E-04  4.8E-03
etot    2  Y  Y  0  N    -349.97076065788  4.2E-03  8.2E-05  1.9E-03
etot    3  Y  Y  0  N    -349.97139610804  6.4E-04  4.9E-05  1.4E-03
etot    4  N  Y  0  N    -349.97168614236  2.9E-04  3.2E-05  7.4E-04
etot    5  N  Y  0  N    -349.97177714949  9.1E-05  1.6E-05  3.2E-04
etot    6  N  Y  0  N    -349.97181276131  3.6E-05  1.2E-05  3.0E-04
etot    7  N  Y  0  N    -349.97182854715  1.6E-05  9.0E-06  1.5E-04
etot    8  N  Y  0  N    -349.97183582592  7.3E-06  6.9E-06  7.6E-05
etot    9  N  Y  0  N    -349.97183821863  2.4E-06  1.5E-06  3.0E-05
etot   10  N  N  0  N    -349.97183840704  1.9E-07  0.0E+00  0.0E+00
scf (UDFT) done.
ch (properties) done.
der1a (1-e 1st deriv.) done.
der1b (2-e 1st deriv.) done.
-------------------------------------------------------
numerical derivatives complete;
calculation at normal geometry follows...
nude (numerical derivatives) done.
onee (1-electron integrals) done.
probe (project orbitals) done.
grid (grid generation) done.
scf type: UDFT=wB97X+D/HF(LR)+HF(SR)+xB97(SR)+cB97+D (wB97X-D)
  
       i  u  d  i  g
       t  p  i  c  r                                 RMS    maximum
       e  d  i  u  i                       energy  density   DIIS  
       r  t  s  t  d       total energy    change  change    error 
  
etot    1  N  N  0  N    -349.92564120096           2.6E-04  5.8E-03
etot    2  Y  Y  0  N    -349.93088477188  5.2E-03  7.9E-05  2.9E-03
etot    3  N  Y  0  N    -349.93175939523  8.7E-04  4.1E-05  1.2E-03
etot    4  N  Y  0  N    -349.93205981490  3.0E-04  2.8E-05  7.5E-04
etot    5  N  Y  0  N    -349.93213206191  7.2E-05  1.4E-05  3.3E-04
etot    6  N  Y  0  N    -349.93216413955  3.2E-05  1.1E-05  2.7E-04
etot    7  N  Y  0  N    -349.93217897225  1.5E-05  8.9E-06  1.3E-04
etot    8  N  Y  0  N    -349.93218625485  7.3E-06  7.9E-06  7.5E-05
etot    9  N  Y  0  N    -349.93218911901  2.9E-06  2.0E-06  2.7E-05
etot   10  N  N  0  N    -349.93218938210  2.6E-07  0.0E+00  0.0E+00
  
solvation phase SCF calculation with PCM ...
scf type: UDFT=wB97X+D/HF(LR)+HF(SR)+xB97(SR)+cB97+D (wB97X-D)
  
       i  u  d  i  g
       t  p  i  c  r                                 RMS    maximum
       e  d  i  u  i                       energy  density   DIIS  
       r  t  s  t  d       total energy    change  change    error 
  
etot    1  N  N  0  N    -349.96667897701           1.9E-04  4.7E-03
etot    2  Y  Y  0  N    -349.97080961665  4.1E-03  8.2E-05  2.1E-03
etot    3  Y  Y  0  N    -349.97143714523  6.3E-04  4.8E-05  1.3E-03
etot    4  N  Y  0  N    -349.97172630053  2.9E-04  3.2E-05  7.3E-04
etot    5  N  Y  0  N    -349.97181616830  9.0E-05  1.6E-05  3.2E-04
etot    6  N  Y  0  N    -349.97185140705  3.5E-05  1.2E-05  3.0E-04
etot    7  N  Y  0  N    -349.97186709684  1.6E-05  9.0E-06  1.5E-04
etot    8  N  Y  0  N    -349.97187438152  7.3E-06  6.9E-06  7.7E-05
etot    9  N  Y  0  N    -349.97187681403  2.4E-06  1.5E-06  3.0E-05
etot   10  N  N  0  N    -349.97187701109  2.0E-07  0.0E+00  0.0E+00
scf (UDFT) done.
ch (properties) done.
der1a (1-e 1st deriv.) done.
der1b (2-e 1st deriv.) done.
nude (numerical derivatives) done.
 ERROR 1591: fatal error
   Incorrect number of vibrational modes
   nfreq=          26  nmodes=          21
  The allnodeexec command exited with return code 1.
--------------------------------------------------------------------------
MPI_ABORT was invoked on rank 0 in communicator MPI_COMM_WORLD 
with errorcode 1.

NOTE: invoking MPI_ABORT causes Open MPI to kill all MPI processes.
You may or may not see output from other processes, depending on
exactly when Open MPI kills them.
--------------------------------------------------------------------------
--------------------------------------------------------------------------
orterun has exited due to process rank 0 with PID 171335 on
node n0260.lr6 exiting improperly. There are two reasons this could occur:

1. this process did not call "init" before exiting, but others in
the job did. This can cause a job to hang indefinitely while it waits
for all processes to call "init". By rule, if one process calls "init",
then ALL processes must call "init" prior to termination.

2. this process called "init", but exited without calling "finalize".
By rule, all processes that call "init" MUST call "finalize" prior to
exiting or it will be considered an "abnormal termination"

This may have caused other processes in the application to be
terminated by signals sent by orterun (as reported here).
--------------------------------------------------------------------------
Error: jaguar died in program freq

Job AutoTS.T9XnCsLi_relax_ts_0 halted prematurely on n0260.lr6 at Thu Mar 19 23:00:43 2020
Timer (jaguar_backend.py) : 24547.09 secs (6 hrs, 49 mins, 07 secs)
Finished:   Thu Mar 19 23:00:43 2020
