5
AutoTS.T9XnCsLi-separated-energy_0_opt_1.out
O          0.58548        1.92016        2.28703
C          0.69527        0.96776        3.03890
O          0.51339        0.95821        4.31753
O          1.01809       -0.24265        2.72035
Li         0.92564       -1.02314        4.58940
