Job AutoTS.T9XnCsLi-separated-energy_0_opt_0 started on n0260.lr6 at Fri Mar 20 19:38:46 2020
jobid: n0260-0-5e757e34

  +--------------------------------------------------------------------+
  |  Jaguar version 10.7, release  12                                  |
  |                                                                    |
  |  Copyright Schrodinger, Inc.                                       |
  |  All Rights Reserved.                                              |
  |                                                                    |
  |  The following have contributed to Jaguar (listed alphabetically): |
  |  Mike Beachy, Art Bochevarov, Dale Braden, Yixiang Cao,            |
  |  Alan Chien, Chris Cortis, Rich Friesner, Bill Goddard,            |
  |  Hod Greeley, Tom Hughes, Leif Jacobson, Jean-Marc Langlois,       |
  |  Daniel Levine, Daniel Mainz, Rob Murphy, Dean Philipp,            |
  |  Tom Pollard, Murco Ringnalda, Mark Watson, Haoyu Yu.              |
  |                                                                    |
  |  Use of this program should be acknowledged in publications as:    |
  |                                                                    |
  |  Jaguar, version 10.7, Schrodinger, Inc., New York, NY, 2020.      |
  |                                                                    |
  |  A. D. Bochevarov, E. Harder, T. F. Hughes, J. R. Greenwood,       |
  |  D. A. Braden, D. M. Philipp, D. Rinaldo, M. D. Halls,             |
  |  J. Zhang, R. A. Friesner, "Jaguar: A High-Performance Quantum     |
  |  Chemistry Software Program with Strengths in Life and Materials   |
  |  Sciences", Int. J. Quantum Chem., 2013, 113(18), 2110-2142.       |
  +--------------------------------------------------------------------+
  
  start of program pre
  
  Job name: AutoTS.T9XnCsLi-separated-energy_0_opt_0
  Executables used: /global/home/groups/lr_mp/ewcspottesmith/schrodinger2020-1/jaguar-v10.7/bin/Linux-x86_64
  Temporary files : /var/tmp/ewcspottesmith/AutoTS.T9XnCsLi-separated-energy_0_opt_0#n0260-0-5e757e34
  Maestro file (input):  AutoTS.T9XnCsLi-separated-energy_0_opt_0.mae
  Maestro file (output): AutoTS.T9XnCsLi-separated-energy_0_opt_0.01.mae
  
 Contents of input file: &gen section only
 ----------------Contents start----------------
&gen
ntemp=50
epsout=18.5
irder=1
isolv=7
tmpstp=20.0
ip12=2
maxitg=200
ip70=2
isymm=0
basis=def2-tzvpd
maxit=250
igeopt=1
ip472=2
babel=xyz
dftname=wb97x-D
ip6=3
ifreq=1
ip24=2
ip193=2
nogas=2
ip5=2
ip192=3
nmder=2
tmpini=58.15
&
 -----------------Contents end-----------------
 
  basis set:             def2-tzvpd                      
  net molecular charge:    0
  multiplicity:            1
  
  keygen settings 
    ihamtyp...   0    numd......   0    iout1.....   6
    iguess....  10    idecon....   0    incdip....   0
    ldips.....   1    icfit.....   1    mulken....   0
    isymm.....   0    ihfgvb....   2    newcon....   1
    nmder.....   2    igeopt....   1    igonly....   0
    mp2.......   0    lmp2......   1    isqm......   0
    isolv.....   7    iheter....   0    fukui.....   0
    idelocv...   0
    isolvg....   2    istate....   0    ioss......   0
    lewdot....   0    igvball...   0    igvbsel...   7
    lewstr....   0    ivanset...   0    ipolar....   0
    iordboy...   1    ixtrboy...   0
    irder.....   1    icavity...   0    idoabe....   0
    ntemp.....  50    npress.....   1
    ifreq.....   1    ifreqfrag...  -1
    imw ......   0
    nogas.....   2    massav....   0    isurf.....   0
    itypk.....   0    ipkat.....   0    nohpk.....   0
    loclmp2c...   0    loclmp2v...   2
    locpostc...   0    locpostv...   0
    ithermo...   1
    tmpini....     58.1500000
    tmpstp....     20.0000000
    press.....      1.0000000
    press_step.....      1.0000000
    freqcut...      0.0000000
    srlrc.....      0.3000000
    srlru.....      0.3000000
    efield....      0.0000000
    qstinit...      0.5000000
    pertnd....      0.0500000
    scalfr....      1.0000000
    auto_scale...   0
    rndsym....      7.4928652      3.7492865      1.3749287
    cfitsvd...        1.000E-04
    cfitrhs...        1.000E+30
    cfiterr...        1.000E-06
    iraman...   0
  dftname  wb97x-d                                                                         
    jdft......   0
    iuhf......   0
    ielec.....   0    negrid....   0
  
  Density Functional Parameters
        wB97X-D non-local exchange: 1.000000
     wB97X-D non-local correlation: 1.000000
  
  keydaf settings 
    idafcon...   0    idafsav...   0
  naydaf 1000 1000 1000 1000 1000 1000 1000 1000 1000 1000
    rdaferr...      0.3000000
  
  keytweak settings 
    mtest.....   0    nosuper...   0
    mxstrip... 200    mxpr...... 100
    ndisk.....****
    nbuck.....     64    nbcmax....1000000
  
  keygvb settings 
    npair.....   0
  
  keylmp2 settings 
    nlmpair.....   0
  
  keygeo settings 
    iunit.....   1
    ang123....      0.0000000      0.0000000      0.0000000
    covfac....      1.2000000
  
  keygrid settings 
    wispc.....   7.500E-01
    ldens.....   0
    denspc....   7.500E-01
  
   grid     daf set  nls  grid set  Q type
  ------    -------  ---  --------  ------
  coarse       1      1       1        1
  medium       2      2       2        1
  fine         3      2       3        0
  ultrafine    4      2       4        1
  charge       0      1      -1        1
  gradient     5      2       4        1
  density      0      1       0        0
  DFT-fine     0      1     -11        0
  DFT-med.     0      1     -10        0
  DFT-grad     0      1     -12        0
  DFT-der2     0      1      -8        0
  DFT-cphf     0      1      -9        0
  LMP2-enrg    4      2       4        1
  LMP2-grad    5      2       2        1
  DFT-cphf2    0      1     -15        0
  PBF-dens     0      1       0        0
  plotting     0      1       0        0
  Rel-grad     0      1     -17        0
  
  idftgrdm  100
  ndftgrdm   50    0    0
  idftgrdf  111
  ndftgrdf   85    0    0
  idftgrdg  111
  ndftgrdg   80    3    0
  idftgrdu  433
  ndftgrdu  105    0    0
  idftgrdd  433
  ndftgrdd  105    0    0
  idftgrdc  433
  ndftgrdc   26    0    0
  idftgrdp  433
  ndftgrdp   18    0    0
  
  keyscf settings 
    maxit..... 250    idiag.....   0    iconv.....   1
    jksep.....   1    itwice....   1    noauto....   0
    noatcor...   0    noupdat...   0    nops......   0
    maxdiis...  10    iteravg...   0    istavg....   0
    icomp.....   0    iacc......   3    ipopsym...   0
    lastwv....   0    idenavg...   1    ipvirt....  10
    irohf.....   2
    nscfa.....   0
    econv.....      0.0000100
    dconv.....      0.0000050
    stdiis....    100.0000000
    vshift....      0.0000000
  
  keyopt settings 
    maxitg.... 200    inhess....   0    intopt....   1
    ihuptyp...   1    nogdiis...   1
    irefhup...   4    nhesref...   0    ilagr.....   0
    nooptr....   0    noopta....   0    nooptt....   0
    irfo......   1    ifollow...   0    itrvec....   0
    itradj....   0    itrcut....   1
  
  geometry convergence criteria:  maximum      rms
    gradient.............        4.500E-04   3.000E-04
    gdiis error vector...        1.000E-02   1.000E-02
    displacement.........        1.800E-03   1.200E-03
    total energy.........        5.000E-05
  
  trust radius adjustment parameters:
    trust.....        3.000E-01
    tradmx....      0.3000000
    tradmn....      0.3000000
    tremx.....      0.2500000
    treok.....      0.2000000
    trescal...      2.0000000
    trgmx.....      0.0000000
  
  keysolv settings 
    kesep.....   1    idelver...   3
    sconv.....      0.0001500
    dlphsc....      5.0000000
    epsin.....      1.0000000
    epsout....     18.5000000
    rionst....      0.0000000
    exrad.....      2.0000000
    radprb....      1.4000000
    cosfden...      8.0000000
    cskin....      0.9500000
  
  keynerg settings 
    esolv0....      0.0000000
  
  NBO analysis settings 
    nboden....   0
  
  atom       vdw   vdw2    cov     mass  grid  daf  charge   basis
  C1        1.949  1.900  0.770   12.000    Y    Y      Y    def2-tzvpd
  C2        1.949  1.900  0.770   12.000    Y    Y      Y    def2-tzvpd
  H1        1.597  1.150  0.320    1.008    Y    Y      Y    def2-tzvpd
  H2        1.597  1.150  0.320    1.008    Y    Y      Y    def2-tzvpd
  H3        1.597  1.150  0.320    1.008    Y    Y      Y    def2-tzvpd
  H4        1.597  1.150  0.320    1.008    Y    Y      Y    def2-tzvpd
  
  Using up to  32 threads per process
  
  cpu seconds-   setlcao   user:        0.1 user+sys:        0.1
  
  program parameters
   npa........   1000   nsh........    800   nomx.......   7500
   nfmx.......  12000   ntmx.......  42000   mxham......   1000
   ngblok.....    128   ngat....... 150000   nptr.......     30
   nafmx......    250   ngrdx......     18
   maxl.......     50   npgf.......   1602   npr........   1500
   npcn.......    625   npcb.......    126   npcbd......    226
   mxdl.......    100   mrx........   1001
   lmx........     16   mxattyp....     12
   nopmx......    120   npbp.......   8001   nspdfg.....     35
   npairs..... 499500   noac.......      4   lfmax......      5
   llfmax.....     14   nshp.......  50000   iablksz....     15
   nbcfmx.....    128   nbcfmxx....    128
   maxbatch....    128   mxbtaabc....    128
  
   ioerr......      0
   iodaf......     18   iogrid.....     10   iobas......     11
   iogeo......     12   iocut......     13   ioxyza.....    120
   ioqmat.....    160   ioxyz......    140   iosave.....     50
   iotmp......     70   ioans......     64   ionbya.....     80
   ionbyn.....     81   iodiis.....     83   iodenv.....     84
   ioopt......     88   iosudo.....     87   iodrvab....     96
  
  cpu seconds-  basis-set  user:        2.7 user+sys:        2.7
  number of basis functions....          110
  N by N matrices stored in           1  strip(s) of size         122
  no dealiasing set available for atom            1
  switch to all-analytic calculation
  
 Input geometry:
                                   angstroms
  atom               x                 y                 z
  C1            0.3486170935      0.0890770769     -0.7158099582 
  C2           -0.9380566933      0.0661051499     -0.3412333590 
  H1            0.8681121456     -0.8197930124     -0.9813394500 
  H2            0.8988364315      1.0175048101     -0.7596566295 
  H3           -1.4886911072     -0.8618832364     -0.2955715143 
  H4           -1.4561948784      0.9754753916     -0.0743604841 
   
  principal moments of inertia:
        amu*angstrom^2:        3.45262       16.84738       20.30000
                g*cm^2: 5.73321407E-40 2.79757358E-39 3.37089425E-39
   
  rotational constants:
               cm^(-1):      4.88255765      1.00060812      0.83042499
                   GHz:    146.37539603     29.99747666     24.89551492
   
  number of surviving atom pairs:    21  out of:    21
  Connectivity table:
                 C1       C2       H1       H2       H3       H4      
  C1              0
  C2              1        0
  H1              1        2        0
  H2              1        2        2        0
  H3              2        1        3        3        0
  H4              2        1        3        3        2        0
  
  Molecular weight:      28.03 amu
   
  Stoichiometry: C2H4
  cpu seconds-  salc       user:        0.0 user+sys:        0.0
  Molecular Point Group: C1      
  Point Group used: C1 (symmetry turned off)
  
  cpu seconds- fintx       user:        0.0 user+sys:        0.0
 
Number of optimization coordinates:    13
Number of independent coordinates:     13
Number of non-redundant coordinates:   12
Number of frozen coordinates:           0
Number of harmonic constraints:         0
 
Number of geometric degrees of freedom:    12
Maximum geometric degrees of freedom:      12
 " " " " " excluding dummy atoms:          12
 
  
 geometric coordinates and optimization variables:
 var coord  type     atom1     atom2     atom3     atom4      status
 --- ----- ------- --------- --------- --------- --------- -------------
   1     1 stretch  C1        C2                                               
   2     2  bend    C1        C2        H3                                     
   3     3  bend    C1        C2        H4                                     
   4     4 stretch  C1        H1                                               
   5     5 stretch  C1        H2                                               
   6     6  bend    C2        C1        H1                                     
   7     7  bend    C2        C1        H2                                     
   8     8 stretch  C2        H3                                               
   9     9 stretch  C2        H4                                               
  10    10 torsion  H1        C2        C1        H2                           
  11    11 torsion  H1        C1        C2        H3                           
  12    12 torsion  H2        C1        C2        H3                           
  13    13 torsion  H3        C1        C2        H4                           
  
  number of surviving atom pairs:    21  out of:    21
  Connectivity table:
                 C1       C2       H1       H2       H3       H4      
  C1              0
  C2              1        0
  H1              1        2        0
  H2              1        2        2        0
  H3              2        1        3        3        0
  H4              2        1        3        3        2        0
  
  nuclear repulsion energy.......      33.336596590 hartrees
 
 Non-default options chosen:
   SCF calculation type: DFT(wb97x-d)                
   DFT=wB97X+D/HF(LR)+HF(SR)+xB97(SR)+cB97+D (wB97X-D)
   Geometry will be optimized in redundant internal coordinates
   Use projection method to maintain geometry constraints
   Optimize geometry with fixed trust radius
   Use level-shifting to restrict geometry steps
   RFO level-shifting used
   Solvation energy will be computed via PCM
   Solvated optimization will not be preceded by gas phase optimization
   Input geometry is assumed to be the optimized gas-phase geometry
   Numerical 2nd derivatives will be computed
   Vibrational frequencies and related properties will be computed
   IR intensities will be computed
   Thermochemical properties will be computed
   Thermochemical data will be computed for  50 temperatures starting at
        58.15 K, at intervals of   20.00 K
   Molecular symmetry not used
   Maximum number of SCF iterations:  250
   Maximum number of geometry steps:  200
   Scaling standard convergence criteria by a factor of   3.00
   BFGS Hessian-updating used
   Geometry DIIS turned off
   Geometries will be output each geometry optimization step
   Solvent: water                                                           
  
 Non-default print settings:
      5=  2   6=  3  12=  2  24=  2  70=  2 192=  3 193=  2 472=  2
  
 Temporary integer options set:
     73=  2
  
  atom       vdw   vdw2    cov     mass  grid  daf  charge   basis
  C1        1.949  1.900  0.770   12.000    Y    Y      Y    def2-tzvpd
  C2        1.949  1.900  0.770   12.000    Y    Y      Y    def2-tzvpd
  H1        1.597  1.150  0.320    1.008    Y    Y      Y    def2-tzvpd
  H2        1.597  1.150  0.320    1.008    Y    Y      Y    def2-tzvpd
  H3        1.597  1.150  0.320    1.008    Y    Y      Y    def2-tzvpd
  H4        1.597  1.150  0.320    1.008    Y    Y      Y    def2-tzvpd
  
 
   Copy grid    4 into grid    2
 
     0                                                  1
     1  1                                1  0  0  0  1  1
     1  1                                1  1  1  1  1  1
     1  1  1  1  1  1  1  1  1  1  1  1  1  1  1  1  1  1
     1  1  1  1  1  1  1  1  1  1  1  1  1  1  1  1  1  1
     1  1  1
                 1  1  1  1  1  1  1  1  1  1  1  1  1  1
              1  1  1  1  1  1  1  1  1  1  1  1  1  1  1
     1  1  1
                 1  1  1  1  1  1  1  1  1  1  1  1  1  1
 
 
   Copy daf    4 into daf    2
 
     0                                                  0
     0  0                                0  0  0  0  0  0
     0  0                                0  0  0  0  0  0
     0  0  0  0  0  0  0  0  0  0  0  0  0  0  0  0  0  0
     0  0  0  0  0  0  0  0  0  0  0  0  0  0  0  0  0  0
     0  0  0
                 0  0  0  0  0  0  0  0  0  0  0  0  0  0
              0  0  0  0  0  0  0  0  0  0  0  0  0  0  0
     0  0  0
                 0  0  0  0  0  0  0  0  0  0  0  0  0  0
 
 
  cpu seconds- preprocess  user:       12.6 user+sys:       12.6
  cpu seconds total thru pre         user:       12.6 user+sys:       12.6
  Peak memory usage:   6769 Mb
  
  end of program pre
   
 Time(pre)  user:       17.3  user+sys:       17.3  wallclock:        2.0
  
  start of program onee
  
  cpu seconds- onee ints   user:        1.4 user+sys:        1.4
  cpu seconds-  sosh-sort  user:        0.0 user+sys:        0.0
  smallest eigenvalue of S:    1.534E-05
  cpu seconds-  canorth    user:        0.3 user+sys:        0.3
  number of canonical orbitals.....          103
  cpu seconds-  rmsmalle   user:        0.0 user+sys:        0.0
  cpu seconds-  testorth   user:        0.0 user+sys:        0.0
  cpu seconds-  zatm-CO    user:        0.0 user+sys:        0.0
  cpu seconds- zcanorth    user:        0.4 user+sys:        0.4
  cpu seconds- onee        user:        2.3 user+sys:        2.3
  cpu seconds total thru onee        user:       14.9 user+sys:       14.9
  Peak memory usage:   6851 Mb
  
  end of program onee
   
 Time(onee)  user:        7.9  user+sys:        7.9  wallclock:        0.5
  
  start of program hfig
  
  initial wavefunction generated automatically from atomic wavefunctions
  cpu seconds-   - smixab  user:        0.0 user+sys:        0.0
  cpu seconds-   - smixab  user:        0.0 user+sys:        0.0
  cpu seconds-  - AtmGss   user:        6.6 user+sys:        6.6
  cpu seconds-  -S ValGss  user:        0.0 user+sys:        0.0
  cpu seconds-  Sym IgXV   user:        0.0 user+sys:        0.0
 
  Irreducible     Total no   No of occupied orbitals 
  representation  orbitals   Shell_1  Shell_2    ...
  No Symm          103          8
  ------------------------
  Orbital occupation/shell    1.000
 
  cpu seconds- Pop by Sym  user:        0.0 user+sys:        0.0
  cpu seconds- init guess  user:        7.1 user+sys:        7.1
  cpu seconds total thru hfig        user:       22.0 user+sys:       22.0
  Peak memory usage:   6702 Mb
  
  end of program hfig
   
 Time(hfig)  user:       11.9  user+sys:       11.9  wallclock:        1.6
  
  start of program probe
  
  cpu seconds- newwvfn     user:        0.3 user+sys:        0.3
  cpu seconds- getvirt     user:        0.2 user+sys:        0.2
  cpu seconds- probe       user:        1.0 user+sys:        1.0
  cpu seconds total thru probe       user:       23.0 user+sys:       23.0
  Peak memory usage:   6697 Mb
  
  end of program probe
   
 Time(probe)  user:        6.4  user+sys:        6.4  wallclock:        0.4
  
  start of program grid
  
  cpu seconds- Set R cut   user:        0.4 user+sys:        0.4
  cpu seconds- ang. grids  user:        0.0 user+sys:        0.0
  cpu seconds- grid gen    user:        0.1 user+sys:        0.1
  cpu seconds-  W_project  user:        0.1 user+sys:        0.1
  cpu seconds- grid bcast  user:        0.0 user+sys:        0.0
  cpu seconds- grid bcast  user:        0.0 user+sys:        0.0
  cpu seconds- grid bcast  user:        0.0 user+sys:        0.0
  cpu seconds- grid bcast  user:        0.0 user+sys:        0.0
  cpu seconds- grid bcast  user:        0.0 user+sys:        0.0
  cpu seconds- grid bcast  user:        0.0 user+sys:        0.0
  cpu seconds-   copy xyz  user:        0.0 user+sys:        0.0
  cpu seconds- grid gen    user:        0.7 user+sys:        0.7
  cpu seconds-  W_project  user:        0.1 user+sys:        0.1
  cpu seconds- grid bcast  user:        0.0 user+sys:        0.0
  cpu seconds- grid bcast  user:        0.0 user+sys:        0.0
  cpu seconds- grid bcast  user:        0.0 user+sys:        0.0
  cpu seconds- grid bcast  user:        0.0 user+sys:        0.0
  cpu seconds- grid bcast  user:        0.0 user+sys:        0.0
  cpu seconds- grid bcast  user:        0.0 user+sys:        0.0
  cpu seconds-   copy xyz  user:        0.0 user+sys:        0.0
  cpu seconds- grid gen    user:        0.3 user+sys:        0.3
  cpu seconds-  W_project  user:        0.2 user+sys:        0.2
  cpu seconds- grid bcast  user:        0.0 user+sys:        0.0
  cpu seconds- grid bcast  user:        0.0 user+sys:        0.0
  cpu seconds- grid bcast  user:        0.0 user+sys:        0.0
  cpu seconds- grid bcast  user:        0.0 user+sys:        0.0
  cpu seconds- grid bcast  user:        0.0 user+sys:        0.0
  cpu seconds- grid bcast  user:        0.0 user+sys:        0.0
  cpu seconds-   copy xyz  user:        0.1 user+sys:        0.1
  cpu seconds- grid gen    user:        0.8 user+sys:        0.8
  cpu seconds-  W_project  user:        0.3 user+sys:        0.3
  cpu seconds- grid bcast  user:        0.0 user+sys:        0.0
  cpu seconds- grid bcast  user:        0.0 user+sys:        0.0
  cpu seconds- grid bcast  user:        0.0 user+sys:        0.0
  cpu seconds- grid bcast  user:        0.0 user+sys:        0.0
  cpu seconds- grid bcast  user:        0.0 user+sys:        0.0
  cpu seconds- grid bcast  user:        0.0 user+sys:        0.0
  cpu seconds-   copy xyz  user:        0.1 user+sys:        0.1
  cpu seconds- grid gen    user:        1.6 user+sys:        1.6
  cpu seconds-  W_project  user:        0.0 user+sys:        0.0
  cpu seconds- grid bcast  user:        0.0 user+sys:        0.0
  cpu seconds- grid bcast  user:        0.0 user+sys:        0.0
  cpu seconds- grid bcast  user:        0.0 user+sys:        0.0
  cpu seconds- grid bcast  user:        0.0 user+sys:        0.0
  cpu seconds- grid bcast  user:        0.0 user+sys:        0.0
  cpu seconds- grid bcast  user:        0.0 user+sys:        0.0
  cpu seconds-   copy xyz  user:        0.0 user+sys:        0.0
  cpu seconds- grid gen    user:        0.3 user+sys:        0.3
  cpu seconds-  W_project  user:        0.0 user+sys:        0.0
  cpu seconds- grid bcast  user:        0.0 user+sys:        0.0
  cpu seconds- grid bcast  user:        0.0 user+sys:        0.0
  cpu seconds- grid bcast  user:        0.0 user+sys:        0.0
  cpu seconds- grid bcast  user:        0.0 user+sys:        0.0
  cpu seconds- grid bcast  user:        0.0 user+sys:        0.0
  cpu seconds- grid bcast  user:        0.0 user+sys:        0.0
  cpu seconds-   copy xyz  user:        0.0 user+sys:        0.0
  cpu seconds- grid gen    user:        0.2 user+sys:        0.2
   grid     grid set  grid #  grid sym
  ------    --------  ------  --------
  coarse        0        0        1
  medium        0        0        1
  fine          0        0        1
  ultrafine     0        0        1
  charge       -1        1        1
  gradient      0        0        1
  density       0        0        1
  DFT-fine    -11        2        1
  DFT-med.    -10        3        1
  DFT-grad    -12        4        1
  DFT-der2     -8        5        1
  DFT-cphf     -9        6        1
  LMP2-enrg     0        0        1
  LMP2-grad     0        0        1
  DFT-cphf2   -15        7        1
  PBF-dens      0        0        1
  plotting      0        0        1
  Rel-grad    -17        0        1
  
  number of gridpoints: 
     atom        C1       C2       H1       H2       H3       H4    total
  grid # 1       48       48      461      460      461      458     1936
  grid # 2     4436     4436     4436     4436     4436     4436    26616
  grid # 3     1192     1192     1192     1192     1192     1192     7152
  grid # 4     5268     5268     5268     5268     5268     5268    31608
  grid # 5    13126    13126    14382    14382    14382    14382    83780
  grid # 6      714      714      768      768      768      768     4500
  grid # 7      366      366      394      394      394      394     2308
   
  cpu seconds- all grids   user:        4.9 user+sys:        4.9
  cpu seconds total thru grid        user:       28.0 user+sys:       28.0
  Peak memory usage:   6734 Mb
  
  end of program grid
   
 Time(grid)  user:       10.6  user+sys:       10.6  wallclock:        0.6
  
  start of program scf
  
  
  Total number of PCM cavity points =         434
  
 number of electrons..........         16
 number of alpha electrons....          8
 number of beta electrons.....          8
 number of orbitals, total....        103
 number of doubly-occ'd orbs..          8
 number of open shell orbs....          0
 number of occupied orbitals..          8
 number of virtual orbitals...         95
 number of hamiltonians.......          1
 number of shells.............          1
 SCF type: DFT=wB97X+D/HF(LR)+HF(SR)+xB97(SR)+cB97+D (wB97X-D)
 Energy computed with NOPS on.
 Convergence Criterion:
    Energy (econv):       1.00E-05
    RMS density (dconv):  5.00E-06
  cpu seconds- pdgemr2d    user:        0.0 user+sys:        0.0
  cpu seconds- pdgemm  1   user:        0.0 user+sys:        0.0
  cpu seconds- pdgemm  2   user:        0.0 user+sys:        0.0
  cpu seconds- pdsyev  1   user:        0.0 user+sys:        0.0
  cpu seconds- pdsyev  2   user:        0.0 user+sys:        0.0
  cpu seconds- h0d gemm2   user:        0.0 user+sys:        0.0
  cpu seconds-  h0virt     user:        0.1 user+sys:        0.1
  cpu seconds- zsettco     user:        0.0 user+sys:        0.0
  cpu seconds- prejk       user:        1.8 user+sys:        1.8
  cpu seconds- pre-iter.   user:        4.5 user+sys:        4.5
  
       i  u  d  i  g                   
       t  p  i  c  r                                 RMS    maximum
       e  d  i  u  i                       energy  density   DIIS  
       r  t  s  t  d       total energy    change  change    error 
  
  cpu seconds-     cut     user:        0.0 user+sys:        0.0
  cpu seconds- form D etc  user:        0.0 user+sys:        0.0
  cpu seconds-   Setup     user:        0.0 user+sys:        0.0
  cpu seconds- ex to comb  user:        0.1 user+sys:        0.1
  cpu seconds-   SetR      user:        0.0 user+sys:        0.0
  cpu seconds-   Rho       user:        0.0 user+sys:        0.0
  cpu seconds-     phi-r   user:        0.0 user+sys:        0.0
  cpu seconds-      reorg  user:        0.0 user+sys:        0.0
  cpu seconds-     phi^2   user:        0.0 user+sys:        0.0
  cpu seconds-   Gamma     user:        0.0 user+sys:        0.0
  cpu seconds-   Vexch_r   user:        0.0 user+sys:        0.0
  cpu seconds-   Vcorr_r   user:        0.0 user+sys:        0.0
  cpu seconds-   V_uv      user:        0.0 user+sys:        0.0
  cpu seconds-     f*w     user:        0.0 user+sys:        0.0
  cpu seconds-     R*f     user:        0.0 user+sys:        0.0
  cpu seconds-     R*f*R   user:        0.0 user+sys:        0.0
  cpu seconds-      gasbl  user:        0.0 user+sys:        0.0
  cpu seconds-      mult   user:        0.0 user+sys:        0.0
  cpu seconds-      pack   user:        0.0 user+sys:        0.0
  cpu seconds-      Tau    user:        0.0 user+sys:        0.0
  cpu seconds-     Delta   user:        0.0 user+sys:        0.0
  cpu seconds-  From Tau   user:        0.0 user+sys:        0.0
  cpu seconds-  From Del.  user:        0.0 user+sys:        0.0
  cpu seconds-     Tau     user:        0.0 user+sys:        0.0
  cpu seconds-  Delta_ab   user:        0.0 user+sys:        0.0
  cpu seconds- DFT call    user:        0.1 user+sys:        0.1
  cpu seconds-   Setup     user:        0.0 user+sys:        0.0
  cpu seconds- ex to comb  user:        0.4 user+sys:        0.4
  cpu seconds-   SetR      user:        0.0 user+sys:        0.0
  cpu seconds-   Rho       user:        0.1 user+sys:        0.1
  cpu seconds-     phi-r   user:        0.0 user+sys:        0.0
  cpu seconds-      reorg  user:        0.0 user+sys:        0.0
  cpu seconds-     phi^2   user:        0.0 user+sys:        0.0
  cpu seconds-   Gamma     user:        0.0 user+sys:        0.0
  cpu seconds-   Vexch_r   user:        0.0 user+sys:        0.0
  cpu seconds-   Vcorr_r   user:        0.0 user+sys:        0.0
  cpu seconds-   V_uv      user:        0.1 user+sys:        0.1
  cpu seconds-     f*w     user:        0.0 user+sys:        0.0
  cpu seconds-     R*f     user:        0.0 user+sys:        0.0
  cpu seconds-     R*f*R   user:        0.0 user+sys:        0.0
  cpu seconds-      gasbl  user:        0.0 user+sys:        0.0
  cpu seconds-      mult   user:        0.0 user+sys:        0.0
  cpu seconds-      pack   user:        0.0 user+sys:        0.0
  cpu seconds-      Tau    user:        0.0 user+sys:        0.0
  cpu seconds-     Delta   user:        0.0 user+sys:        0.0
  cpu seconds-  From Tau   user:        0.0 user+sys:        0.0
  cpu seconds-  From Del.  user:        0.0 user+sys:        0.0
  cpu seconds-     Tau     user:        0.0 user+sys:        0.0
  cpu seconds-  Delta_ab   user:        0.0 user+sys:        0.0
  cpu seconds- DFT call    user:        0.4 user+sys:        0.4
  cpu seconds- DFT-DRIVE   user:        0.5 user+sys:        0.5
  cpu seconds- form D etc  user:        0.0 user+sys:        0.0
  cpu seconds- <aa|aa>     user:        0.6 user+sys:        0.6
  cpu seconds- <aa|bb>     user:        0.6 user+sys:        0.6
  cpu seconds- <aa|bc>     user:        2.2 user+sys:        2.2
  cpu seconds- <ab|cd>     user:        1.0 user+sys:        1.0
  cpu seconds- ghgpint     user:        5.1 user+sys:        5.1
  cpu seconds- <aa|aa>     user:        0.5 user+sys:        0.5
  cpu seconds- <aa|bb>     user:        0.6 user+sys:        0.6
  cpu seconds- <aa|bc>     user:        1.2 user+sys:        1.2
  cpu seconds- <ab|cd>     user:        0.8 user+sys:        0.8
  cpu seconds- ghgpint     user:        3.7 user+sys:        3.7
  cpu seconds- Sym Fock    user:        0.0 user+sys:        0.0
  cpu seconds- JK-DRIVE    user:        8.8 user+sys:        8.8
  cpu seconds- JK-build    user:        9.4 user+sys:        9.4
  cpu seconds-   up+can    user:        0.0 user+sys:        0.0
  cpu seconds- eieio       user:        0.0 user+sys:        0.0
  cpu seconds-  F-build    user:        0.0 user+sys:        0.0
  cpu seconds- DIIS Error  user:        0.0 user+sys:        0.0
  cpu seconds- scfcon      user:        0.0 user+sys:        0.0
  cpu seconds-   ner+con   user:        0.0 user+sys:        0.0
  cpu seconds- filler1     user:        0.0 user+sys:        0.0
  cpu seconds-  F-diag     user:        0.1 user+sys:        0.1
  cpu seconds-  oooooo     user:        0.0 user+sys:        0.0
  cpu seconds-  rmsden     user:        0.0 user+sys:        0.0
  cpu seconds- this iter   user:        9.7 user+sys:        9.7
etot    1  N  N  0  N     -78.22699986797           1.7E-03  2.3E-01
  cpu seconds-     cut     user:        0.0 user+sys:        0.0
  cpu seconds- form D etc  user:        0.0 user+sys:        0.0
  cpu seconds-   Setup     user:        0.0 user+sys:        0.0
  cpu seconds- ex to comb  user:        0.2 user+sys:        0.2
  cpu seconds-   SetR      user:        0.0 user+sys:        0.0
  cpu seconds-   Rho       user:        0.0 user+sys:        0.0
  cpu seconds-     phi-r   user:        0.0 user+sys:        0.0
  cpu seconds-      reorg  user:        0.0 user+sys:        0.0
  cpu seconds-     phi^2   user:        0.0 user+sys:        0.0
  cpu seconds-   Gamma     user:        0.0 user+sys:        0.0
  cpu seconds-   Vexch_r   user:        0.0 user+sys:        0.0
  cpu seconds-   Vcorr_r   user:        0.0 user+sys:        0.0
  cpu seconds-   V_uv      user:        0.0 user+sys:        0.0
  cpu seconds-     f*w     user:        0.0 user+sys:        0.0
  cpu seconds-     R*f     user:        0.0 user+sys:        0.0
  cpu seconds-     R*f*R   user:        0.0 user+sys:        0.0
  cpu seconds-      gasbl  user:        0.0 user+sys:        0.0
  cpu seconds-      mult   user:        0.0 user+sys:        0.0
  cpu seconds-      pack   user:        0.0 user+sys:        0.0
  cpu seconds-      Tau    user:        0.0 user+sys:        0.0
  cpu seconds-     Delta   user:        0.0 user+sys:        0.0
  cpu seconds-  From Tau   user:        0.0 user+sys:        0.0
  cpu seconds-  From Del.  user:        0.0 user+sys:        0.0
  cpu seconds-     Tau     user:        0.0 user+sys:        0.0
  cpu seconds-  Delta_ab   user:        0.0 user+sys:        0.0
  cpu seconds- DFT call    user:        0.2 user+sys:        0.2
  cpu seconds- DFT-DRIVE   user:        0.2 user+sys:        0.2
  cpu seconds- neu updat   user:        0.0 user+sys:        0.0
  cpu seconds- form D etc  user:        0.0 user+sys:        0.0
  cpu seconds- <aa|aa>     user:        0.6 user+sys:        0.6
  cpu seconds- <aa|bb>     user:        0.7 user+sys:        0.7
  cpu seconds- <aa|bc>     user:        1.3 user+sys:        1.3
  cpu seconds- <ab|cd>     user:        1.2 user+sys:        1.2
  cpu seconds- ghgpint     user:        4.5 user+sys:        4.5
  cpu seconds- <aa|aa>     user:        0.5 user+sys:        0.5
  cpu seconds- <aa|bb>     user:        0.7 user+sys:        0.7
  cpu seconds- <aa|bc>     user:        1.6 user+sys:        1.6
  cpu seconds- <ab|cd>     user:        1.1 user+sys:        1.1
  cpu seconds- ghgpint     user:        4.5 user+sys:        4.5
  cpu seconds- Sym Fock    user:        0.0 user+sys:        0.0
  cpu seconds- JK-DRIVE    user:        9.0 user+sys:        9.0
  cpu seconds- JK-build    user:        9.3 user+sys:        9.3
  cpu seconds-   up+can    user:        0.0 user+sys:        0.0
  cpu seconds- eieio       user:        0.0 user+sys:        0.0
  cpu seconds-  F-build    user:        0.0 user+sys:        0.0
  cpu seconds- DIIS Error  user:        0.0 user+sys:        0.0
  cpu seconds- scfcon      user:        0.0 user+sys:        0.0
  cpu seconds-   ner+con   user:        0.0 user+sys:        0.0
  cpu seconds- filler1     user:        0.0 user+sys:        0.0
  cpu seconds-  F-diag     user:        0.1 user+sys:        0.1
  cpu seconds-  oooooo     user:        0.0 user+sys:        0.0
  cpu seconds-  rmsden     user:        0.0 user+sys:        0.0
  cpu seconds- this iter   user:        9.5 user+sys:        9.5
etot    2  Y  Y  0  N     -78.52059122822  2.9E-01  1.5E-03  1.0E-01
  cpu seconds-     cut     user:        0.0 user+sys:        0.0
  cpu seconds- form D etc  user:        0.0 user+sys:        0.0
  cpu seconds-   Setup     user:        0.0 user+sys:        0.0
  cpu seconds- ex to comb  user:        0.1 user+sys:        0.1
  cpu seconds-   SetR      user:        0.0 user+sys:        0.0
  cpu seconds-   Rho       user:        0.0 user+sys:        0.0
  cpu seconds-     phi-r   user:        0.0 user+sys:        0.0
  cpu seconds-      reorg  user:        0.0 user+sys:        0.0
  cpu seconds-     phi^2   user:        0.0 user+sys:        0.0
  cpu seconds-   Gamma     user:        0.0 user+sys:        0.0
  cpu seconds-   Vexch_r   user:        0.0 user+sys:        0.0
  cpu seconds-   Vcorr_r   user:        0.0 user+sys:        0.0
  cpu seconds-   V_uv      user:        0.0 user+sys:        0.0
  cpu seconds-     f*w     user:        0.0 user+sys:        0.0
  cpu seconds-     R*f     user:        0.0 user+sys:        0.0
  cpu seconds-     R*f*R   user:        0.0 user+sys:        0.0
  cpu seconds-      gasbl  user:        0.0 user+sys:        0.0
  cpu seconds-      mult   user:        0.0 user+sys:        0.0
  cpu seconds-      pack   user:        0.0 user+sys:        0.0
  cpu seconds-      Tau    user:        0.0 user+sys:        0.0
  cpu seconds-     Delta   user:        0.0 user+sys:        0.0
  cpu seconds-  From Tau   user:        0.0 user+sys:        0.0
  cpu seconds-  From Del.  user:        0.0 user+sys:        0.0
  cpu seconds-     Tau     user:        0.0 user+sys:        0.0
  cpu seconds-  Delta_ab   user:        0.0 user+sys:        0.0
  cpu seconds- DFT call    user:        0.2 user+sys:        0.2
  cpu seconds-   Setup     user:        0.0 user+sys:        0.0
  cpu seconds- ex to comb  user:        0.3 user+sys:        0.3
  cpu seconds-   SetR      user:        0.0 user+sys:        0.0
  cpu seconds-   Rho       user:        0.0 user+sys:        0.0
  cpu seconds-     phi-r   user:        0.0 user+sys:        0.0
  cpu seconds-      reorg  user:        0.0 user+sys:        0.0
  cpu seconds-     phi^2   user:        0.0 user+sys:        0.0
  cpu seconds-   Gamma     user:        0.0 user+sys:        0.0
  cpu seconds-   Vexch_r   user:        0.0 user+sys:        0.0
  cpu seconds-   Vcorr_r   user:        0.0 user+sys:        0.0
  cpu seconds-   V_uv      user:        0.1 user+sys:        0.1
  cpu seconds-     f*w     user:        0.0 user+sys:        0.0
  cpu seconds-     R*f     user:        0.0 user+sys:        0.0
  cpu seconds-     R*f*R   user:        0.0 user+sys:        0.0
  cpu seconds-      gasbl  user:        0.0 user+sys:        0.0
  cpu seconds-      mult   user:        0.0 user+sys:        0.0
  cpu seconds-      pack   user:        0.0 user+sys:        0.0
  cpu seconds-      Tau    user:        0.0 user+sys:        0.0
  cpu seconds-     Delta   user:        0.0 user+sys:        0.0
  cpu seconds-  From Tau   user:        0.0 user+sys:        0.0
  cpu seconds-  From Del.  user:        0.0 user+sys:        0.0
  cpu seconds-     Tau     user:        0.0 user+sys:        0.0
  cpu seconds-  Delta_ab   user:        0.0 user+sys:        0.0
  cpu seconds- DFT call    user:        0.3 user+sys:        0.3
  cpu seconds- DFT-DRIVE   user:        0.5 user+sys:        0.5
  cpu seconds- neu updat   user:        0.0 user+sys:        0.0
  cpu seconds- form D etc  user:        0.0 user+sys:        0.0
  cpu seconds- <aa|aa>     user:        0.6 user+sys:        0.6
  cpu seconds- <aa|bb>     user:        0.6 user+sys:        0.6
  cpu seconds- <aa|bc>     user:        1.4 user+sys:        1.4
  cpu seconds- <ab|cd>     user:        1.2 user+sys:        1.2
  cpu seconds- ghgpint     user:        4.4 user+sys:        4.4
  cpu seconds- <aa|aa>     user:        0.5 user+sys:        0.5
  cpu seconds- <aa|bb>     user:        0.6 user+sys:        0.6
  cpu seconds- <aa|bc>     user:        1.3 user+sys:        1.3
  cpu seconds- <ab|cd>     user:        1.1 user+sys:        1.1
  cpu seconds- ghgpint     user:        4.1 user+sys:        4.1
  cpu seconds- Sym Fock    user:        0.0 user+sys:        0.0
  cpu seconds- JK-DRIVE    user:        8.5 user+sys:        8.5
  cpu seconds- JK-build    user:        9.0 user+sys:        9.0
  cpu seconds-   up+can    user:        0.0 user+sys:        0.0
  cpu seconds- eieio       user:        0.0 user+sys:        0.0
  cpu seconds-  F-build    user:        0.0 user+sys:        0.0
  cpu seconds- DIIS Error  user:        0.0 user+sys:        0.0
  cpu seconds- scfcon      user:        0.0 user+sys:        0.0
  cpu seconds-   ner+con   user:        0.0 user+sys:        0.0
  cpu seconds- filler1     user:        0.0 user+sys:        0.0
  cpu seconds-  F-diag     user:        0.1 user+sys:        0.1
  cpu seconds-  oooooo     user:        0.0 user+sys:        0.0
  cpu seconds-  rmsden     user:        0.0 user+sys:        0.0
  cpu seconds- this iter   user:        9.3 user+sys:        9.3
etot    3  N  Y  0  N     -78.57557474514  5.5E-02  4.6E-04  2.9E-02
  cpu seconds-     cut     user:        0.0 user+sys:        0.0
  cpu seconds- form D etc  user:        0.0 user+sys:        0.0
  cpu seconds-   Setup     user:        0.0 user+sys:        0.0
  cpu seconds- ex to comb  user:        0.2 user+sys:        0.2
  cpu seconds-   SetR      user:        0.0 user+sys:        0.0
  cpu seconds-   Rho       user:        0.0 user+sys:        0.0
  cpu seconds-     phi-r   user:        0.0 user+sys:        0.0
  cpu seconds-      reorg  user:        0.0 user+sys:        0.0
  cpu seconds-     phi^2   user:        0.0 user+sys:        0.0
  cpu seconds-   Gamma     user:        0.0 user+sys:        0.0
  cpu seconds-   Vexch_r   user:        0.0 user+sys:        0.0
  cpu seconds-   Vcorr_r   user:        0.0 user+sys:        0.0
  cpu seconds-   V_uv      user:        0.0 user+sys:        0.0
  cpu seconds-     f*w     user:        0.0 user+sys:        0.0
  cpu seconds-     R*f     user:        0.0 user+sys:        0.0
  cpu seconds-     R*f*R   user:        0.0 user+sys:        0.0
  cpu seconds-      gasbl  user:        0.0 user+sys:        0.0
  cpu seconds-      mult   user:        0.0 user+sys:        0.0
  cpu seconds-      pack   user:        0.0 user+sys:        0.0
  cpu seconds-      Tau    user:        0.0 user+sys:        0.0
  cpu seconds-     Delta   user:        0.0 user+sys:        0.0
  cpu seconds-  From Tau   user:        0.0 user+sys:        0.0
  cpu seconds-  From Del.  user:        0.0 user+sys:        0.0
  cpu seconds-     Tau     user:        0.0 user+sys:        0.0
  cpu seconds-  Delta_ab   user:        0.0 user+sys:        0.0
  cpu seconds- DFT call    user:        0.2 user+sys:        0.2
  cpu seconds- DFT-DRIVE   user:        0.2 user+sys:        0.2
  cpu seconds- neu updat   user:        0.0 user+sys:        0.0
  cpu seconds- form D etc  user:        0.0 user+sys:        0.0
  cpu seconds- <aa|aa>     user:        0.6 user+sys:        0.6
  cpu seconds- <aa|bb>     user:        0.6 user+sys:        0.6
  cpu seconds- <aa|bc>     user:        1.7 user+sys:        1.7
  cpu seconds- <ab|cd>     user:        1.2 user+sys:        1.2
  cpu seconds- ghgpint     user:        4.8 user+sys:        4.8
  cpu seconds- <aa|aa>     user:        0.5 user+sys:        0.5
  cpu seconds- <aa|bb>     user:        0.7 user+sys:        0.7
  cpu seconds- <aa|bc>     user:        1.1 user+sys:        1.1
  cpu seconds- <ab|cd>     user:        1.1 user+sys:        1.1
  cpu seconds- ghgpint     user:        4.0 user+sys:        4.0
  cpu seconds- Sym Fock    user:        0.0 user+sys:        0.0
  cpu seconds- JK-DRIVE    user:        8.8 user+sys:        8.8
  cpu seconds- JK-build    user:        9.1 user+sys:        9.1
  cpu seconds-   up+can    user:        0.0 user+sys:        0.0
  cpu seconds- eieio       user:        0.0 user+sys:        0.0
  cpu seconds-  F-build    user:        0.0 user+sys:        0.0
  cpu seconds- DIIS Error  user:        0.0 user+sys:        0.0
  cpu seconds- scfcon      user:        0.0 user+sys:        0.0
  cpu seconds-   ner+con   user:        0.0 user+sys:        0.0
  cpu seconds- filler1     user:        0.0 user+sys:        0.0
  cpu seconds-  F-diag     user:        0.1 user+sys:        0.1
  cpu seconds-  oooooo     user:        0.0 user+sys:        0.0
  cpu seconds-  rmsden     user:        0.0 user+sys:        0.0
  cpu seconds- this iter   user:        9.3 user+sys:        9.3
etot    4  Y  Y  0  N     -78.58757417239  1.2E-02  8.8E-05  1.7E-03
  cpu seconds-     cut     user:        0.0 user+sys:        0.0
  cpu seconds- form D etc  user:        0.0 user+sys:        0.0
  cpu seconds-   Setup     user:        0.0 user+sys:        0.0
  cpu seconds- ex to comb  user:        0.1 user+sys:        0.1
  cpu seconds-   SetR      user:        0.0 user+sys:        0.0
  cpu seconds-   Rho       user:        0.0 user+sys:        0.0
  cpu seconds-     phi-r   user:        0.0 user+sys:        0.0
  cpu seconds-      reorg  user:        0.0 user+sys:        0.0
  cpu seconds-     phi^2   user:        0.0 user+sys:        0.0
  cpu seconds-   Gamma     user:        0.0 user+sys:        0.0
  cpu seconds-   Vexch_r   user:        0.0 user+sys:        0.0
  cpu seconds-   Vcorr_r   user:        0.0 user+sys:        0.0
  cpu seconds-   V_uv      user:        0.0 user+sys:        0.0
  cpu seconds-     f*w     user:        0.0 user+sys:        0.0
  cpu seconds-     R*f     user:        0.0 user+sys:        0.0
  cpu seconds-     R*f*R   user:        0.0 user+sys:        0.0
  cpu seconds-      gasbl  user:        0.0 user+sys:        0.0
  cpu seconds-      mult   user:        0.0 user+sys:        0.0
  cpu seconds-      pack   user:        0.0 user+sys:        0.0
  cpu seconds-      Tau    user:        0.0 user+sys:        0.0
  cpu seconds-     Delta   user:        0.0 user+sys:        0.0
  cpu seconds-  From Tau   user:        0.0 user+sys:        0.0
  cpu seconds-  From Del.  user:        0.0 user+sys:        0.0
  cpu seconds-     Tau     user:        0.0 user+sys:        0.0
  cpu seconds-  Delta_ab   user:        0.0 user+sys:        0.0
  cpu seconds- DFT call    user:        0.2 user+sys:        0.2
  cpu seconds-   Setup     user:        0.0 user+sys:        0.0
  cpu seconds- ex to comb  user:        0.3 user+sys:        0.3
  cpu seconds-   SetR      user:        0.0 user+sys:        0.0
  cpu seconds-   Rho       user:        0.1 user+sys:        0.1
  cpu seconds-     phi-r   user:        0.0 user+sys:        0.0
  cpu seconds-      reorg  user:        0.0 user+sys:        0.0
  cpu seconds-     phi^2   user:        0.0 user+sys:        0.0
  cpu seconds-   Gamma     user:        0.0 user+sys:        0.0
  cpu seconds-   Vexch_r   user:        0.0 user+sys:        0.0
  cpu seconds-   Vcorr_r   user:        0.0 user+sys:        0.0
  cpu seconds-   V_uv      user:        0.0 user+sys:        0.0
  cpu seconds-     f*w     user:        0.0 user+sys:        0.0
  cpu seconds-     R*f     user:        0.0 user+sys:        0.0
  cpu seconds-     R*f*R   user:        0.0 user+sys:        0.0
  cpu seconds-      gasbl  user:        0.0 user+sys:        0.0
  cpu seconds-      mult   user:        0.0 user+sys:        0.0
  cpu seconds-      pack   user:        0.0 user+sys:        0.0
  cpu seconds-      Tau    user:        0.0 user+sys:        0.0
  cpu seconds-     Delta   user:        0.0 user+sys:        0.0
  cpu seconds-  From Tau   user:        0.0 user+sys:        0.0
  cpu seconds-  From Del.  user:        0.0 user+sys:        0.0
  cpu seconds-     Tau     user:        0.0 user+sys:        0.0
  cpu seconds-  Delta_ab   user:        0.0 user+sys:        0.0
  cpu seconds- DFT call    user:        0.3 user+sys:        0.3
  cpu seconds- DFT-DRIVE   user:        0.5 user+sys:        0.5
  cpu seconds- neu updat   user:        0.0 user+sys:        0.0
  cpu seconds- form D etc  user:        0.0 user+sys:        0.0
  cpu seconds- <aa|aa>     user:        0.6 user+sys:        0.6
  cpu seconds- <aa|bb>     user:        0.6 user+sys:        0.6
  cpu seconds- <aa|bc>     user:        1.3 user+sys:        1.3
  cpu seconds- <ab|cd>     user:        1.3 user+sys:        1.3
  cpu seconds- ghgpint     user:        4.5 user+sys:        4.5
  cpu seconds- <aa|aa>     user:        0.5 user+sys:        0.5
  cpu seconds- <aa|bb>     user:        0.6 user+sys:        0.6
  cpu seconds- <aa|bc>     user:        1.2 user+sys:        1.2
  cpu seconds- <ab|cd>     user:        1.2 user+sys:        1.2
  cpu seconds- ghgpint     user:        4.2 user+sys:        4.2
  cpu seconds- Sym Fock    user:        0.0 user+sys:        0.0
  cpu seconds- JK-DRIVE    user:        8.8 user+sys:        8.8
  cpu seconds- JK-build    user:        9.3 user+sys:        9.3
  cpu seconds-   up+can    user:        0.0 user+sys:        0.0
  cpu seconds- eieio       user:        0.0 user+sys:        0.0
  cpu seconds-  F-build    user:        0.0 user+sys:        0.0
  cpu seconds- DIIS Error  user:        0.0 user+sys:        0.0
  cpu seconds- scfcon      user:        0.0 user+sys:        0.0
  cpu seconds-   ner+con   user:        0.0 user+sys:        0.0
  cpu seconds- filler1     user:        0.0 user+sys:        0.0
  cpu seconds-  F-diag     user:        0.1 user+sys:        0.1
  cpu seconds-  oooooo     user:        0.0 user+sys:        0.0
  cpu seconds-  rmsden     user:        0.0 user+sys:        0.0
  cpu seconds- this iter   user:        9.5 user+sys:        9.5
etot    5  N  Y  0  N     -78.58781036456  2.4E-04  1.5E-05  5.2E-04
  cpu seconds-     cut     user:        0.0 user+sys:        0.0
  cpu seconds- form D etc  user:        0.0 user+sys:        0.0
  cpu seconds-   Setup     user:        0.0 user+sys:        0.0
  cpu seconds- ex to comb  user:        0.1 user+sys:        0.1
  cpu seconds-   SetR      user:        0.0 user+sys:        0.0
  cpu seconds-   Rho       user:        0.0 user+sys:        0.0
  cpu seconds-     phi-r   user:        0.0 user+sys:        0.0
  cpu seconds-      reorg  user:        0.0 user+sys:        0.0
  cpu seconds-     phi^2   user:        0.0 user+sys:        0.0
  cpu seconds-   Gamma     user:        0.0 user+sys:        0.0
  cpu seconds-   Vexch_r   user:        0.0 user+sys:        0.0
  cpu seconds-   Vcorr_r   user:        0.0 user+sys:        0.0
  cpu seconds-   V_uv      user:        0.0 user+sys:        0.0
  cpu seconds-     f*w     user:        0.0 user+sys:        0.0
  cpu seconds-     R*f     user:        0.0 user+sys:        0.0
  cpu seconds-     R*f*R   user:        0.0 user+sys:        0.0
  cpu seconds-      gasbl  user:        0.0 user+sys:        0.0
  cpu seconds-      mult   user:        0.0 user+sys:        0.0
  cpu seconds-      pack   user:        0.0 user+sys:        0.0
  cpu seconds-      Tau    user:        0.0 user+sys:        0.0
  cpu seconds-     Delta   user:        0.0 user+sys:        0.0
  cpu seconds-  From Tau   user:        0.0 user+sys:        0.0
  cpu seconds-  From Del.  user:        0.0 user+sys:        0.0
  cpu seconds-     Tau     user:        0.0 user+sys:        0.0
  cpu seconds-  Delta_ab   user:        0.0 user+sys:        0.0
  cpu seconds- DFT call    user:        0.1 user+sys:        0.1
  cpu seconds-   Setup     user:        0.0 user+sys:        0.0
  cpu seconds- ex to comb  user:        0.4 user+sys:        0.4
  cpu seconds-   SetR      user:        0.0 user+sys:        0.0
  cpu seconds-   Rho       user:        0.0 user+sys:        0.0
  cpu seconds-     phi-r   user:        0.0 user+sys:        0.0
  cpu seconds-      reorg  user:        0.0 user+sys:        0.0
  cpu seconds-     phi^2   user:        0.0 user+sys:        0.0
  cpu seconds-   Gamma     user:        0.0 user+sys:        0.0
  cpu seconds-   Vexch_r   user:        0.0 user+sys:        0.0
  cpu seconds-   Vcorr_r   user:        0.0 user+sys:        0.0
  cpu seconds-   V_uv      user:        0.0 user+sys:        0.0
  cpu seconds-     f*w     user:        0.0 user+sys:        0.0
  cpu seconds-     R*f     user:        0.0 user+sys:        0.0
  cpu seconds-     R*f*R   user:        0.0 user+sys:        0.0
  cpu seconds-      gasbl  user:        0.0 user+sys:        0.0
  cpu seconds-      mult   user:        0.0 user+sys:        0.0
  cpu seconds-      pack   user:        0.0 user+sys:        0.0
  cpu seconds-      Tau    user:        0.0 user+sys:        0.0
  cpu seconds-     Delta   user:        0.0 user+sys:        0.0
  cpu seconds-  From Tau   user:        0.0 user+sys:        0.0
  cpu seconds-  From Del.  user:        0.0 user+sys:        0.0
  cpu seconds-     Tau     user:        0.0 user+sys:        0.0
  cpu seconds-  Delta_ab   user:        0.0 user+sys:        0.0
  cpu seconds- DFT call    user:        0.4 user+sys:        0.4
  cpu seconds- DFT-DRIVE   user:        0.5 user+sys:        0.5
  cpu seconds- neu updat   user:        0.0 user+sys:        0.0
  cpu seconds- form D etc  user:        0.0 user+sys:        0.0
  cpu seconds- <aa|aa>     user:        0.6 user+sys:        0.6
  cpu seconds- <aa|bb>     user:        0.5 user+sys:        0.5
  cpu seconds- <aa|bc>     user:        1.5 user+sys:        1.5
  cpu seconds- <ab|cd>     user:        1.3 user+sys:        1.3
  cpu seconds- ghgpint     user:        4.7 user+sys:        4.7
  cpu seconds- <aa|aa>     user:        0.5 user+sys:        0.5
  cpu seconds- <aa|bb>     user:        0.6 user+sys:        0.6
  cpu seconds- <aa|bc>     user:        1.2 user+sys:        1.2
  cpu seconds- <ab|cd>     user:        1.2 user+sys:        1.2
  cpu seconds- ghgpint     user:        4.0 user+sys:        4.0
  cpu seconds- Sym Fock    user:        0.0 user+sys:        0.0
  cpu seconds- JK-DRIVE    user:        8.7 user+sys:        8.7
  cpu seconds- JK-build    user:        9.2 user+sys:        9.2
  cpu seconds-   up+can    user:        0.0 user+sys:        0.0
  cpu seconds- eieio       user:        0.0 user+sys:        0.0
  cpu seconds-  F-build    user:        0.0 user+sys:        0.0
  cpu seconds- DIIS Error  user:        0.0 user+sys:        0.0
  cpu seconds- scfcon      user:        0.0 user+sys:        0.0
  cpu seconds-   ner+con   user:        0.0 user+sys:        0.0
  cpu seconds- filler1     user:        0.0 user+sys:        0.0
  cpu seconds-  F-diag     user:        0.1 user+sys:        0.1
  cpu seconds-  oooooo     user:        0.0 user+sys:        0.0
  cpu seconds-  rmsden     user:        0.0 user+sys:        0.0
  cpu seconds- this iter   user:        9.5 user+sys:        9.5
etot    6  N  Y  0  N     -78.58781455272  4.2E-06  2.4E-06  1.0E-04
  cpu seconds-     cut     user:        0.0 user+sys:        0.0
  cpu seconds- form D etc  user:        0.0 user+sys:        0.0
  cpu seconds-   Setup     user:        0.0 user+sys:        0.0
  cpu seconds- ex to comb  user:        0.1 user+sys:        0.1
  cpu seconds-   SetR      user:        0.0 user+sys:        0.0
  cpu seconds-   Rho       user:        0.0 user+sys:        0.0
  cpu seconds-     phi-r   user:        0.0 user+sys:        0.0
  cpu seconds-      reorg  user:        0.0 user+sys:        0.0
  cpu seconds-     phi^2   user:        0.0 user+sys:        0.0
  cpu seconds-   Gamma     user:        0.0 user+sys:        0.0
  cpu seconds-   Vexch_r   user:        0.0 user+sys:        0.0
  cpu seconds-   Vcorr_r   user:        0.0 user+sys:        0.0
  cpu seconds-   V_uv      user:        0.0 user+sys:        0.0
  cpu seconds-     f*w     user:        0.0 user+sys:        0.0
  cpu seconds-     R*f     user:        0.0 user+sys:        0.0
  cpu seconds-     R*f*R   user:        0.0 user+sys:        0.0
  cpu seconds-      gasbl  user:        0.0 user+sys:        0.0
  cpu seconds-      mult   user:        0.0 user+sys:        0.0
  cpu seconds-      pack   user:        0.0 user+sys:        0.0
  cpu seconds-      Tau    user:        0.0 user+sys:        0.0
  cpu seconds-     Delta   user:        0.0 user+sys:        0.0
  cpu seconds-  From Tau   user:        0.0 user+sys:        0.0
  cpu seconds-  From Del.  user:        0.0 user+sys:        0.0
  cpu seconds-     Tau     user:        0.0 user+sys:        0.0
  cpu seconds-  Delta_ab   user:        0.0 user+sys:        0.0
  cpu seconds- DFT call    user:        0.2 user+sys:        0.2
  cpu seconds-   Setup     user:        0.0 user+sys:        0.0
  cpu seconds- ex to comb  user:        0.3 user+sys:        0.3
  cpu seconds-   SetR      user:        0.0 user+sys:        0.0
  cpu seconds-   Rho       user:        0.1 user+sys:        0.1
  cpu seconds-     phi-r   user:        0.0 user+sys:        0.0
  cpu seconds-      reorg  user:        0.0 user+sys:        0.0
  cpu seconds-     phi^2   user:        0.0 user+sys:        0.0
  cpu seconds-   Gamma     user:        0.0 user+sys:        0.0
  cpu seconds-   Vexch_r   user:        0.0 user+sys:        0.0
  cpu seconds-   Vcorr_r   user:        0.0 user+sys:        0.0
  cpu seconds-   V_uv      user:        0.1 user+sys:        0.1
  cpu seconds-     f*w     user:        0.0 user+sys:        0.0
  cpu seconds-     R*f     user:        0.0 user+sys:        0.0
  cpu seconds-     R*f*R   user:        0.0 user+sys:        0.0
  cpu seconds-      gasbl  user:        0.0 user+sys:        0.0
  cpu seconds-      mult   user:        0.0 user+sys:        0.0
  cpu seconds-      pack   user:        0.0 user+sys:        0.0
  cpu seconds-      Tau    user:        0.0 user+sys:        0.0
  cpu seconds-     Delta   user:        0.0 user+sys:        0.0
  cpu seconds-  From Tau   user:        0.0 user+sys:        0.0
  cpu seconds-  From Del.  user:        0.0 user+sys:        0.0
  cpu seconds-     Tau     user:        0.0 user+sys:        0.0
  cpu seconds-  Delta_ab   user:        0.0 user+sys:        0.0
  cpu seconds- DFT call    user:        0.3 user+sys:        0.3
  cpu seconds- DFT-DRIVE   user:        0.5 user+sys:        0.5
  cpu seconds- neu updat   user:        0.0 user+sys:        0.0
  cpu seconds- form D etc  user:        0.0 user+sys:        0.0
  cpu seconds- <aa|aa>     user:        0.6 user+sys:        0.6
  cpu seconds- <aa|bb>     user:        0.6 user+sys:        0.6
  cpu seconds- <aa|bc>     user:        1.4 user+sys:        1.4
  cpu seconds- <ab|cd>     user:        1.3 user+sys:        1.3
  cpu seconds- ghgpint     user:        4.5 user+sys:        4.5
  cpu seconds- <aa|aa>     user:        0.5 user+sys:        0.5
  cpu seconds- <aa|bb>     user:        0.6 user+sys:        0.6
  cpu seconds- <aa|bc>     user:        1.2 user+sys:        1.2
  cpu seconds- <ab|cd>     user:        1.2 user+sys:        1.2
  cpu seconds- ghgpint     user:        4.1 user+sys:        4.1
  cpu seconds- Sym Fock    user:        0.0 user+sys:        0.0
  cpu seconds- JK-DRIVE    user:        8.7 user+sys:        8.7
  cpu seconds- JK-build    user:        9.2 user+sys:        9.2
  cpu seconds-   up+can    user:        0.0 user+sys:        0.0
  cpu seconds- eieio       user:        0.0 user+sys:        0.0
  cpu seconds-  F-build    user:        0.0 user+sys:        0.0
  cpu seconds- DIIS Error  user:        0.0 user+sys:        0.0
  cpu seconds- scfcon      user:        0.0 user+sys:        0.0
  cpu seconds-   ner+con   user:        0.0 user+sys:        0.0
etot    7  N  N  0  N     -78.58781465441  1.0E-07  0.0E+00  0.0E+00
  cpu seconds- this iter   user:        9.2 user+sys:        9.2
  Total i/o for J and K matrices:      0.0000 Mwords
  Index i/o for J and K matrices:      0.0000 Mwords
 
 
  Computing the D energy correction and its gradients...
  
  
 Energy components, in hartrees:
   (A)  Nuclear repulsion............      33.33659659014
   (E)  Total one-electron terms.....    -170.28191878116
   (F)    Electron-nuclear...........    -248.40417079307
   (H)    Kinetic....................      78.12225201191
   (I)  Total two-electron terms.....      58.35750753661
   (J)    Coulomb....................      70.63297528440
   (K)    Exchange+Correlation.......     -12.27546774779
   (L)  Electronic energy............    -111.92441124455  (E+I)
   (M)  -V/T.........................       2.00595941144  (-(A+F+I)/H)
   (N0) D correction.................      -0.00083895775
   (N)  Total energy.................     -78.58865361216  (A+L+N0)
   (O)  Gas phase energy.............     -78.58865361216
  
 SCFE: SCF energy: DFT(wb97x-d)       -78.58865361216 hartrees   iterations:   7
  
 
 HOMO energy:    -0.35755
 LUMO energy:     0.06649
 
  Orbital energies (hartrees): 
   -10.28598   -10.28511    -0.86086    -0.67581    -0.56185    -0.50461
    -0.44308    -0.35755     0.06649     0.08000     0.09772     0.14452
     0.17652     0.20402     0.20546     0.21868     0.22510     0.23752
 
  size of unit 81 :      342332 words
  
 solvation phase SCF calculation with PCM ...
  
 number of electrons..........         16
 number of alpha electrons....          8
 number of beta electrons.....          8
 number of orbitals, total....        103
 number of doubly-occ'd orbs..          8
 number of open shell orbs....          0
 number of occupied orbitals..          8
 number of virtual orbitals...         95
 number of hamiltonians.......          1
 number of shells.............          1
 SCF type: DFT=wB97X+D/HF(LR)+HF(SR)+xB97(SR)+cB97+D (wB97X-D)
 Energy computed with NOPS on.
 Convergence Criterion:
    Energy (econv):       1.00E-05
    RMS density (dconv):  5.00E-06
  cpu seconds- pdgemr2d    user:        0.0 user+sys:        0.0
  cpu seconds- pdgemm  1   user:        0.0 user+sys:        0.0
  cpu seconds- pdgemm  2   user:        0.0 user+sys:        0.0
  cpu seconds- pdsyev  1   user:        0.0 user+sys:        0.0
  cpu seconds- pdsyev  2   user:        0.0 user+sys:        0.0
  cpu seconds- h0d gemm2   user:        0.0 user+sys:        0.0
  cpu seconds-  h0virt     user:        0.1 user+sys:        0.1
  cpu seconds- zsettco     user:        0.0 user+sys:        0.0
  cpu seconds- prejk       user:        1.5 user+sys:        1.5
  cpu seconds- pre-iter.   user:       76.2 user+sys:       76.2
  
       i  u  d  i  g                   
       t  p  i  c  r                                 RMS    maximum
       e  d  i  u  i                       energy  density   DIIS  
       r  t  s  t  d       total energy    change  change    error 
  
  cpu seconds-     cut     user:        0.0 user+sys:        0.0
  cpu seconds- form D etc  user:        0.0 user+sys:        0.0
  cpu seconds-   Setup     user:        0.0 user+sys:        0.0
  cpu seconds- ex to comb  user:        0.1 user+sys:        0.1
  cpu seconds-   SetR      user:        0.0 user+sys:        0.0
  cpu seconds-   Rho       user:        0.0 user+sys:        0.0
  cpu seconds-     phi-r   user:        0.0 user+sys:        0.0
  cpu seconds-      reorg  user:        0.0 user+sys:        0.0
  cpu seconds-     phi^2   user:        0.0 user+sys:        0.0
  cpu seconds-   Gamma     user:        0.0 user+sys:        0.0
  cpu seconds-   Vexch_r   user:        0.0 user+sys:        0.0
  cpu seconds-   Vcorr_r   user:        0.0 user+sys:        0.0
  cpu seconds-   V_uv      user:        0.0 user+sys:        0.0
  cpu seconds-     f*w     user:        0.0 user+sys:        0.0
  cpu seconds-     R*f     user:        0.0 user+sys:        0.0
  cpu seconds-     R*f*R   user:        0.0 user+sys:        0.0
  cpu seconds-      gasbl  user:        0.0 user+sys:        0.0
  cpu seconds-      mult   user:        0.0 user+sys:        0.0
  cpu seconds-      pack   user:        0.0 user+sys:        0.0
  cpu seconds-      Tau    user:        0.0 user+sys:        0.0
  cpu seconds-     Delta   user:        0.0 user+sys:        0.0
  cpu seconds-  From Tau   user:        0.0 user+sys:        0.0
  cpu seconds-  From Del.  user:        0.0 user+sys:        0.0
  cpu seconds-     Tau     user:        0.0 user+sys:        0.0
  cpu seconds-  Delta_ab   user:        0.0 user+sys:        0.0
  cpu seconds- DFT call    user:        0.1 user+sys:        0.1
  cpu seconds-   Setup     user:        0.0 user+sys:        0.0
  cpu seconds- ex to comb  user:        0.4 user+sys:        0.4
  cpu seconds-   SetR      user:        0.0 user+sys:        0.0
  cpu seconds-   Rho       user:        0.0 user+sys:        0.0
  cpu seconds-     phi-r   user:        0.0 user+sys:        0.0
  cpu seconds-      reorg  user:        0.0 user+sys:        0.0
  cpu seconds-     phi^2   user:        0.0 user+sys:        0.0
  cpu seconds-   Gamma     user:        0.0 user+sys:        0.0
  cpu seconds-   Vexch_r   user:        0.0 user+sys:        0.0
  cpu seconds-   Vcorr_r   user:        0.0 user+sys:        0.0
  cpu seconds-   V_uv      user:        0.0 user+sys:        0.0
  cpu seconds-     f*w     user:        0.0 user+sys:        0.0
  cpu seconds-     R*f     user:        0.0 user+sys:        0.0
  cpu seconds-     R*f*R   user:        0.0 user+sys:        0.0
  cpu seconds-      gasbl  user:        0.0 user+sys:        0.0
  cpu seconds-      mult   user:        0.0 user+sys:        0.0
  cpu seconds-      pack   user:        0.0 user+sys:        0.0
  cpu seconds-      Tau    user:        0.0 user+sys:        0.0
  cpu seconds-     Delta   user:        0.0 user+sys:        0.0
  cpu seconds-  From Tau   user:        0.0 user+sys:        0.0
  cpu seconds-  From Del.  user:        0.0 user+sys:        0.0
  cpu seconds-     Tau     user:        0.0 user+sys:        0.0
  cpu seconds-  Delta_ab   user:        0.0 user+sys:        0.0
  cpu seconds- DFT call    user:        0.4 user+sys:        0.4
  cpu seconds- DFT-DRIVE   user:        0.5 user+sys:        0.5
  cpu seconds- form D etc  user:        0.0 user+sys:        0.0
  cpu seconds- <aa|aa>     user:        0.6 user+sys:        0.6
  cpu seconds- <aa|bb>     user:        0.6 user+sys:        0.6
  cpu seconds- <aa|bc>     user:        1.4 user+sys:        1.4
  cpu seconds- <ab|cd>     user:        1.2 user+sys:        1.2
  cpu seconds- ghgpint     user:        4.5 user+sys:        4.5
  cpu seconds- <aa|aa>     user:        0.5 user+sys:        0.5
  cpu seconds- <aa|bb>     user:        0.6 user+sys:        0.6
  cpu seconds- <aa|bc>     user:        1.1 user+sys:        1.1
  cpu seconds- <ab|cd>     user:        1.1 user+sys:        1.1
  cpu seconds- ghgpint     user:        3.8 user+sys:        3.8
  cpu seconds- Sym Fock    user:        0.0 user+sys:        0.0
  cpu seconds- JK-DRIVE    user:        8.9 user+sys:        8.9
  cpu seconds- JK-build    user:        9.5 user+sys:        9.5
  cpu seconds-   up+can    user:        0.0 user+sys:        0.0
  cpu seconds- eieio       user:        0.0 user+sys:        0.0
  cpu seconds-  F-build    user:        0.0 user+sys:        0.0
  cpu seconds- DIIS Error  user:        0.0 user+sys:        0.0
  cpu seconds- scfcon      user:        0.0 user+sys:        0.0
  cpu seconds-   ner+con   user:        0.0 user+sys:        0.0
  cpu seconds- filler1     user:        0.0 user+sys:        0.0
  cpu seconds-  F-diag     user:        0.1 user+sys:        0.1
  cpu seconds-  oooooo     user:        0.0 user+sys:        0.0
  cpu seconds-  rmsden     user:        0.0 user+sys:        0.0
  cpu seconds- this iter   user:        9.7 user+sys:        9.7
etot    1  N  N  0  N     -78.59028535329           1.3E-04  2.4E-03
  cpu seconds-     cut     user:        0.0 user+sys:        0.0
  cpu seconds- form D etc  user:        0.0 user+sys:        0.0
  cpu seconds-   Setup     user:        0.0 user+sys:        0.0
  cpu seconds- ex to comb  user:        0.2 user+sys:        0.2
  cpu seconds-   SetR      user:        0.0 user+sys:        0.0
  cpu seconds-   Rho       user:        0.0 user+sys:        0.0
  cpu seconds-     phi-r   user:        0.0 user+sys:        0.0
  cpu seconds-      reorg  user:        0.0 user+sys:        0.0
  cpu seconds-     phi^2   user:        0.0 user+sys:        0.0
  cpu seconds-   Gamma     user:        0.0 user+sys:        0.0
  cpu seconds-   Vexch_r   user:        0.0 user+sys:        0.0
  cpu seconds-   Vcorr_r   user:        0.0 user+sys:        0.0
  cpu seconds-   V_uv      user:        0.0 user+sys:        0.0
  cpu seconds-     f*w     user:        0.0 user+sys:        0.0
  cpu seconds-     R*f     user:        0.0 user+sys:        0.0
  cpu seconds-     R*f*R   user:        0.0 user+sys:        0.0
  cpu seconds-      gasbl  user:        0.0 user+sys:        0.0
  cpu seconds-      mult   user:        0.0 user+sys:        0.0
  cpu seconds-      pack   user:        0.0 user+sys:        0.0
  cpu seconds-      Tau    user:        0.0 user+sys:        0.0
  cpu seconds-     Delta   user:        0.0 user+sys:        0.0
  cpu seconds-  From Tau   user:        0.0 user+sys:        0.0
  cpu seconds-  From Del.  user:        0.0 user+sys:        0.0
  cpu seconds-     Tau     user:        0.0 user+sys:        0.0
  cpu seconds-  Delta_ab   user:        0.0 user+sys:        0.0
  cpu seconds- DFT call    user:        0.2 user+sys:        0.2
  cpu seconds- DFT-DRIVE   user:        0.2 user+sys:        0.2
  cpu seconds- neu updat   user:        0.0 user+sys:        0.0
  cpu seconds- form D etc  user:        0.0 user+sys:        0.0
  cpu seconds- <aa|aa>     user:        0.6 user+sys:        0.6
  cpu seconds- <aa|bb>     user:        0.5 user+sys:        0.5
  cpu seconds- <aa|bc>     user:        1.2 user+sys:        1.2
  cpu seconds- <ab|cd>     user:        1.2 user+sys:        1.2
  cpu seconds- ghgpint     user:        4.1 user+sys:        4.1
  cpu seconds- <aa|aa>     user:        0.5 user+sys:        0.5
  cpu seconds- <aa|bb>     user:        0.6 user+sys:        0.6
  cpu seconds- <aa|bc>     user:        1.1 user+sys:        1.1
  cpu seconds- <ab|cd>     user:        1.1 user+sys:        1.1
  cpu seconds- ghgpint     user:        4.0 user+sys:        4.0
  cpu seconds- Sym Fock    user:        0.0 user+sys:        0.0
  cpu seconds- JK-DRIVE    user:        8.7 user+sys:        8.7
  cpu seconds- JK-build    user:        9.0 user+sys:        9.0
  cpu seconds-   up+can    user:        0.0 user+sys:        0.0
  cpu seconds- eieio       user:        0.0 user+sys:        0.0
  cpu seconds-  F-build    user:        0.0 user+sys:        0.0
  cpu seconds- DIIS Error  user:        0.0 user+sys:        0.0
  cpu seconds- scfcon      user:        0.0 user+sys:        0.0
  cpu seconds-   ner+con   user:        0.0 user+sys:        0.0
  cpu seconds- filler1     user:        0.0 user+sys:        0.0
  cpu seconds-  F-diag     user:        0.1 user+sys:        0.1
  cpu seconds-  oooooo     user:        0.0 user+sys:        0.0
  cpu seconds-  rmsden     user:        0.0 user+sys:        0.0
  cpu seconds- this iter   user:        9.2 user+sys:        9.2
etot    2  Y  Y  0  N     -78.59038213945  9.7E-05  4.1E-05  1.0E-03
  cpu seconds-     cut     user:        0.0 user+sys:        0.0
  cpu seconds- form D etc  user:        0.0 user+sys:        0.0
  cpu seconds-   Setup     user:        0.0 user+sys:        0.0
  cpu seconds- ex to comb  user:        0.1 user+sys:        0.1
  cpu seconds-   SetR      user:        0.0 user+sys:        0.0
  cpu seconds-   Rho       user:        0.0 user+sys:        0.0
  cpu seconds-     phi-r   user:        0.0 user+sys:        0.0
  cpu seconds-      reorg  user:        0.0 user+sys:        0.0
  cpu seconds-     phi^2   user:        0.0 user+sys:        0.0
  cpu seconds-   Gamma     user:        0.0 user+sys:        0.0
  cpu seconds-   Vexch_r   user:        0.0 user+sys:        0.0
  cpu seconds-   Vcorr_r   user:        0.0 user+sys:        0.0
  cpu seconds-   V_uv      user:        0.0 user+sys:        0.0
  cpu seconds-     f*w     user:        0.0 user+sys:        0.0
  cpu seconds-     R*f     user:        0.0 user+sys:        0.0
  cpu seconds-     R*f*R   user:        0.0 user+sys:        0.0
  cpu seconds-      gasbl  user:        0.0 user+sys:        0.0
  cpu seconds-      mult   user:        0.0 user+sys:        0.0
  cpu seconds-      pack   user:        0.0 user+sys:        0.0
  cpu seconds-      Tau    user:        0.0 user+sys:        0.0
  cpu seconds-     Delta   user:        0.0 user+sys:        0.0
  cpu seconds-  From Tau   user:        0.0 user+sys:        0.0
  cpu seconds-  From Del.  user:        0.0 user+sys:        0.0
  cpu seconds-     Tau     user:        0.0 user+sys:        0.0
  cpu seconds-  Delta_ab   user:        0.0 user+sys:        0.0
  cpu seconds- DFT call    user:        0.1 user+sys:        0.1
  cpu seconds-   Setup     user:        0.0 user+sys:        0.0
  cpu seconds- ex to comb  user:        0.3 user+sys:        0.3
  cpu seconds-   SetR      user:        0.0 user+sys:        0.0
  cpu seconds-   Rho       user:        0.0 user+sys:        0.0
  cpu seconds-     phi-r   user:        0.0 user+sys:        0.0
  cpu seconds-      reorg  user:        0.0 user+sys:        0.0
  cpu seconds-     phi^2   user:        0.0 user+sys:        0.0
  cpu seconds-   Gamma     user:        0.0 user+sys:        0.0
  cpu seconds-   Vexch_r   user:        0.0 user+sys:        0.0
  cpu seconds-   Vcorr_r   user:        0.0 user+sys:        0.0
  cpu seconds-   V_uv      user:        0.0 user+sys:        0.0
  cpu seconds-     f*w     user:        0.0 user+sys:        0.0
  cpu seconds-     R*f     user:        0.0 user+sys:        0.0
  cpu seconds-     R*f*R   user:        0.0 user+sys:        0.0
  cpu seconds-      gasbl  user:        0.0 user+sys:        0.0
  cpu seconds-      mult   user:        0.0 user+sys:        0.0
  cpu seconds-      pack   user:        0.0 user+sys:        0.0
  cpu seconds-      Tau    user:        0.0 user+sys:        0.0
  cpu seconds-     Delta   user:        0.0 user+sys:        0.0
  cpu seconds-  From Tau   user:        0.0 user+sys:        0.0
  cpu seconds-  From Del.  user:        0.0 user+sys:        0.0
  cpu seconds-     Tau     user:        0.0 user+sys:        0.0
  cpu seconds-  Delta_ab   user:        0.0 user+sys:        0.0
  cpu seconds- DFT call    user:        0.3 user+sys:        0.3
  cpu seconds- DFT-DRIVE   user:        0.5 user+sys:        0.5
  cpu seconds- neu updat   user:        0.0 user+sys:        0.0
  cpu seconds- form D etc  user:        0.0 user+sys:        0.0
  cpu seconds- <aa|aa>     user:        0.6 user+sys:        0.6
  cpu seconds- <aa|bb>     user:        0.7 user+sys:        0.7
  cpu seconds- <aa|bc>     user:        1.4 user+sys:        1.4
  cpu seconds- <ab|cd>     user:        1.3 user+sys:        1.3
  cpu seconds- ghgpint     user:        4.6 user+sys:        4.6
  cpu seconds- <aa|aa>     user:        0.5 user+sys:        0.5
  cpu seconds- <aa|bb>     user:        0.6 user+sys:        0.6
  cpu seconds- <aa|bc>     user:        1.2 user+sys:        1.2
  cpu seconds- <ab|cd>     user:        1.2 user+sys:        1.2
  cpu seconds- ghgpint     user:        4.0 user+sys:        4.0
  cpu seconds- Sym Fock    user:        0.0 user+sys:        0.0
  cpu seconds- JK-DRIVE    user:        9.2 user+sys:        9.2
  cpu seconds- JK-build    user:        9.7 user+sys:        9.7
  cpu seconds-   up+can    user:        0.0 user+sys:        0.0
  cpu seconds- eieio       user:        0.0 user+sys:        0.0
  cpu seconds-  F-build    user:        0.0 user+sys:        0.0
  cpu seconds- DIIS Error  user:        0.0 user+sys:        0.0
  cpu seconds- scfcon      user:        0.0 user+sys:        0.0
  cpu seconds-   ner+con   user:        0.0 user+sys:        0.0
  cpu seconds- filler1     user:        0.0 user+sys:        0.0
  cpu seconds-  F-diag     user:        0.1 user+sys:        0.1
  cpu seconds-  oooooo     user:        0.0 user+sys:        0.0
  cpu seconds-  rmsden     user:        0.0 user+sys:        0.0
  cpu seconds- this iter   user:       10.0 user+sys:       10.0
etot    3  N  Y  0  N     -78.59039419174  1.2E-05  1.8E-05  5.0E-04
  cpu seconds-     cut     user:        0.0 user+sys:        0.0
  cpu seconds- form D etc  user:        0.0 user+sys:        0.0
  cpu seconds-   Setup     user:        0.0 user+sys:        0.0
  cpu seconds- ex to comb  user:        0.1 user+sys:        0.1
  cpu seconds-   SetR      user:        0.0 user+sys:        0.0
  cpu seconds-   Rho       user:        0.0 user+sys:        0.0
  cpu seconds-     phi-r   user:        0.0 user+sys:        0.0
  cpu seconds-      reorg  user:        0.0 user+sys:        0.0
  cpu seconds-     phi^2   user:        0.0 user+sys:        0.0
  cpu seconds-   Gamma     user:        0.0 user+sys:        0.0
  cpu seconds-   Vexch_r   user:        0.0 user+sys:        0.0
  cpu seconds-   Vcorr_r   user:        0.0 user+sys:        0.0
  cpu seconds-   V_uv      user:        0.0 user+sys:        0.0
  cpu seconds-     f*w     user:        0.0 user+sys:        0.0
  cpu seconds-     R*f     user:        0.0 user+sys:        0.0
  cpu seconds-     R*f*R   user:        0.0 user+sys:        0.0
  cpu seconds-      gasbl  user:        0.0 user+sys:        0.0
  cpu seconds-      mult   user:        0.0 user+sys:        0.0
  cpu seconds-      pack   user:        0.0 user+sys:        0.0
  cpu seconds-      Tau    user:        0.0 user+sys:        0.0
  cpu seconds-     Delta   user:        0.0 user+sys:        0.0
  cpu seconds-  From Tau   user:        0.0 user+sys:        0.0
  cpu seconds-  From Del.  user:        0.0 user+sys:        0.0
  cpu seconds-     Tau     user:        0.0 user+sys:        0.0
  cpu seconds-  Delta_ab   user:        0.0 user+sys:        0.0
  cpu seconds- DFT call    user:        0.2 user+sys:        0.2
  cpu seconds-   Setup     user:        0.0 user+sys:        0.0
  cpu seconds- ex to comb  user:        0.3 user+sys:        0.3
  cpu seconds-   SetR      user:        0.0 user+sys:        0.0
  cpu seconds-   Rho       user:        0.0 user+sys:        0.0
  cpu seconds-     phi-r   user:        0.0 user+sys:        0.0
  cpu seconds-      reorg  user:        0.0 user+sys:        0.0
  cpu seconds-     phi^2   user:        0.0 user+sys:        0.0
  cpu seconds-   Gamma     user:        0.0 user+sys:        0.0
  cpu seconds-   Vexch_r   user:        0.0 user+sys:        0.0
  cpu seconds-   Vcorr_r   user:        0.0 user+sys:        0.0
  cpu seconds-   V_uv      user:        0.1 user+sys:        0.1
  cpu seconds-     f*w     user:        0.0 user+sys:        0.0
  cpu seconds-     R*f     user:        0.0 user+sys:        0.0
  cpu seconds-     R*f*R   user:        0.1 user+sys:        0.1
  cpu seconds-      gasbl  user:        0.0 user+sys:        0.0
  cpu seconds-      mult   user:        0.0 user+sys:        0.0
  cpu seconds-      pack   user:        0.0 user+sys:        0.0
  cpu seconds-      Tau    user:        0.0 user+sys:        0.0
  cpu seconds-     Delta   user:        0.0 user+sys:        0.0
  cpu seconds-  From Tau   user:        0.0 user+sys:        0.0
  cpu seconds-  From Del.  user:        0.0 user+sys:        0.0
  cpu seconds-     Tau     user:        0.0 user+sys:        0.0
  cpu seconds-  Delta_ab   user:        0.0 user+sys:        0.0
  cpu seconds- DFT call    user:        0.4 user+sys:        0.4
  cpu seconds- DFT-DRIVE   user:        0.5 user+sys:        0.5
  cpu seconds- neu updat   user:        0.0 user+sys:        0.0
  cpu seconds- form D etc  user:        0.0 user+sys:        0.0
  cpu seconds- <aa|aa>     user:        0.6 user+sys:        0.6
  cpu seconds- <aa|bb>     user:        0.6 user+sys:        0.6
  cpu seconds- <aa|bc>     user:        1.6 user+sys:        1.6
  cpu seconds- <ab|cd>     user:        1.2 user+sys:        1.2
  cpu seconds- ghgpint     user:        4.6 user+sys:        4.6
  cpu seconds- <aa|aa>     user:        0.5 user+sys:        0.5
  cpu seconds- <aa|bb>     user:        0.6 user+sys:        0.6
  cpu seconds- <aa|bc>     user:        1.2 user+sys:        1.2
  cpu seconds- <ab|cd>     user:        1.2 user+sys:        1.2
  cpu seconds- ghgpint     user:        4.1 user+sys:        4.1
  cpu seconds- Sym Fock    user:        0.0 user+sys:        0.0
  cpu seconds- JK-DRIVE    user:        9.3 user+sys:        9.3
  cpu seconds- JK-build    user:        9.8 user+sys:        9.8
  cpu seconds-   up+can    user:        0.0 user+sys:        0.0
  cpu seconds- eieio       user:        0.0 user+sys:        0.0
  cpu seconds-  F-build    user:        0.0 user+sys:        0.0
  cpu seconds- DIIS Error  user:        0.0 user+sys:        0.0
  cpu seconds- scfcon      user:        0.0 user+sys:        0.0
  cpu seconds-   ner+con   user:        0.0 user+sys:        0.0
  cpu seconds- filler1     user:        0.0 user+sys:        0.0
  cpu seconds-  F-diag     user:        0.1 user+sys:        0.1
  cpu seconds-  oooooo     user:        0.0 user+sys:        0.0
  cpu seconds-  rmsden     user:        0.0 user+sys:        0.0
  cpu seconds- this iter   user:       10.1 user+sys:       10.1
etot    4  N  Y  0  N     -78.59039720819  3.0E-06  4.9E-06  8.3E-05
  cpu seconds-     cut     user:        0.0 user+sys:        0.0
  cpu seconds- form D etc  user:        0.0 user+sys:        0.0
[...]
  trans.          1.962      2.981     39.861      3.270    -22.965   17.55870
  rot.            1.962      2.981     20.953      1.962    -11.829    9.04403
  vib.            2.293      9.552      4.880      2.293     -0.919    0.70280
  elec.           0.000      0.000      0.000      0.000      0.000    0.00000
  ----------------------------------------------------------------------------
  total           6.217     15.513     65.694      7.524    -35.712   27.30553
   
   Total internal energy, Utot(SCFE + ZPE + U):     -78.529641 hartrees
              Total enthalpy, Htot (Utot + pV):     -78.527557 hartrees
    Total Gibbs free energy, Gtot (Htot - T*S):     -78.596459 hartrees


  T =   678.15 K, P =     1.00 atm
   
                  U         Cv          S          H          G        ln(Q)
              =========  =========  =========  =========  =========  =========
  trans.          2.021      2.981     40.009      3.369    -23.763   17.63354
  rot.            2.021      2.981     21.042      2.021    -12.248    9.08893
  vib.            2.487      9.877      5.171      2.487     -1.020    0.75667
  elec.           0.000      0.000      0.000      0.000      0.000    0.00000
  ----------------------------------------------------------------------------
  total           6.530     15.839     66.223      7.878    -37.032   27.47914
   
   Total internal energy, Utot(SCFE + ZPE + U):     -78.529142 hartrees
              Total enthalpy, Htot (Utot + pV):     -78.526994 hartrees
    Total Gibbs free energy, Gtot (Htot - T*S):     -78.598562 hartrees


  T =   698.15 K, P =     1.00 atm
   
                  U         Cv          S          H          G        ln(Q)
              =========  =========  =========  =========  =========  =========
  trans.          2.081      2.981     40.154      3.468    -24.565   17.70620
  rot.            2.081      2.981     21.129      2.081    -12.670    9.13253
  vib.            2.688     10.194      5.463      2.688     -1.126    0.81164
  elec.           0.000      0.000      0.000      0.000      0.000    0.00000
  ----------------------------------------------------------------------------
  total           6.850     16.155     66.746      8.237    -38.361   27.65037
   
   Total internal energy, Utot(SCFE + ZPE + U):     -78.528632 hartrees
              Total enthalpy, Htot (Utot + pV):     -78.526421 hartrees
    Total Gibbs free energy, Gtot (Htot - T*S):     -78.600681 hartrees


  T =   718.15 K, P =     1.00 atm
   
                  U         Cv          S          H          G        ln(Q)
              =========  =========  =========  =========  =========  =========
  trans.          2.141      2.981     40.294      3.568    -25.370   17.77681
  rot.            2.141      2.981     21.213      2.141    -13.094    9.17490
  vib.            2.895     10.501      5.755      2.895     -1.238    0.86764
  elec.           0.000      0.000      0.000      0.000      0.000    0.00000
  ----------------------------------------------------------------------------
  total           7.176     16.463     67.263      8.603    -39.701   27.81935
   
   Total internal energy, Utot(SCFE + ZPE + U):     -78.528112 hartrees
              Total enthalpy, Htot (Utot + pV):     -78.525838 hartrees
    Total Gibbs free energy, Gtot (Htot - T*S):     -78.602816 hartrees


  T =   738.15 K, P =     1.00 atm
   
                  U         Cv          S          H          G        ln(Q)
              =========  =========  =========  =========  =========  =========
  trans.          2.200      2.981     40.431      3.667    -26.177   17.84548
  rot.            2.200      2.981     21.295      2.200    -13.519    9.21610
  vib.            3.108     10.801      6.048      3.108     -1.356    0.92460
  elec.           0.000      0.000      0.000      0.000      0.000    0.00000
  ----------------------------------------------------------------------------
  total           7.508     16.762     67.774      8.975    -41.052   27.98618
   
   Total internal energy, Utot(SCFE + ZPE + U):     -78.527583 hartrees
              Total enthalpy, Htot (Utot + pV):     -78.525245 hartrees
    Total Gibbs free energy, Gtot (Htot - T*S):     -78.604968 hartrees


  T =   758.15 K, P =     1.00 atm
   
                  U         Cv          S          H          G        ln(Q)
              =========  =========  =========  =========  =========  =========
  trans.          2.260      2.981     40.563      3.767    -26.987   17.91232
  rot.            2.260      2.981     21.375      2.260    -13.945    9.25620
  vib.            3.327     11.092      6.340      3.327     -1.480    0.98243
  elec.           0.000      0.000      0.000      0.000      0.000    0.00000
  ----------------------------------------------------------------------------
  total           7.847     17.054     68.279      9.353    -42.412   28.15095
   
   Total internal energy, Utot(SCFE + ZPE + U):     -78.527044 hartrees
              Total enthalpy, Htot (Utot + pV):     -78.524643 hartrees
    Total Gibbs free energy, Gtot (Htot - T*S):     -78.607136 hartrees


  T =   778.15 K, P =     1.00 atm
   
                  U         Cv          S          H          G        ln(Q)
              =========  =========  =========  =========  =========  =========
  trans.          2.320      2.981     40.693      3.866    -27.799   17.97741
  rot.            2.320      2.981     21.452      2.320    -14.374    9.29526
  vib.            3.552     11.376      6.633      3.552     -1.610    1.04108
  elec.           0.000      0.000      0.000      0.000      0.000    0.00000
  ----------------------------------------------------------------------------
  total           8.191     17.338     68.778      9.737    -43.783   28.31375
   
   Total internal energy, Utot(SCFE + ZPE + U):     -78.526496 hartrees
              Total enthalpy, Htot (Utot + pV):     -78.524031 hartrees
    Total Gibbs free energy, Gtot (Htot - T*S):     -78.609320 hartrees


  T =   798.15 K, P =     1.00 atm
   
                  U         Cv          S          H          G        ln(Q)
              =========  =========  =========  =========  =========  =========
  trans.          2.379      2.981     40.819      3.965    -28.614   18.04086
  rot.            2.379      2.981     21.528      2.379    -14.803    9.33333
  vib.            3.782     11.653      6.925      3.782     -1.745    1.10047
  elec.           0.000      0.000      0.000      0.000      0.000    0.00000
  ----------------------------------------------------------------------------
  total           8.540     17.614     69.272     10.126    -45.163   28.47466
   
   Total internal energy, Utot(SCFE + ZPE + U):     -78.525938 hartrees
              Total enthalpy, Htot (Utot + pV):     -78.523411 hartrees
    Total Gibbs free energy, Gtot (Htot - T*S):     -78.611520 hartrees


  T =   818.15 K, P =     1.00 atm
   
                  U         Cv          S          H          G        ln(Q)
              =========  =========  =========  =========  =========  =========
  trans.          2.439      2.981     40.942      4.065    -29.432   18.10273
  rot.            2.439      2.981     21.602      2.439    -15.235    9.37045
  vib.            4.018     11.922      7.217      4.018     -1.887    1.16056
  elec.           0.000      0.000      0.000      0.000      0.000    0.00000
  ----------------------------------------------------------------------------
  total           8.895     17.884     69.761     10.521    -46.554   28.63374
   
   Total internal energy, Utot(SCFE + ZPE + U):     -78.525373 hartrees
              Total enthalpy, Htot (Utot + pV):     -78.522782 hartrees
    Total Gibbs free energy, Gtot (Htot - T*S):     -78.613736 hartrees


  T =   838.15 K, P =     1.00 atm
   
                  U         Cv          S          H          G        ln(Q)
              =========  =========  =========  =========  =========  =========
  trans.          2.498      2.981     41.062      4.164    -30.252   18.16311
  rot.            2.498      2.981     21.674      2.498    -15.668    9.40668
  vib.            4.259     12.184      7.508      4.259     -2.034    1.22127
  elec.           0.000      0.000      0.000      0.000      0.000    0.00000
  ----------------------------------------------------------------------------
  total           9.255     18.146     70.244     10.921    -47.954   28.79106
   
   Total internal energy, Utot(SCFE + ZPE + U):     -78.524799 hartrees
              Total enthalpy, Htot (Utot + pV):     -78.522144 hartrees
    Total Gibbs free energy, Gtot (Htot - T*S):     -78.615967 hartrees


  T =   858.15 K, P =     1.00 atm
   
                  U         Cv          S          H          G        ln(Q)
              =========  =========  =========  =========  =========  =========
  trans.          2.558      2.981     41.179      4.263    -31.074   18.22206
  rot.            2.558      2.981     21.744      2.558    -16.102    9.44205
  vib.            4.505     12.440      7.798      4.505     -2.187    1.28257
  elec.           0.000      0.000      0.000      0.000      0.000    0.00000
  ----------------------------------------------------------------------------
  total           9.621     18.402     70.721     11.326    -49.363   28.94668
   
   Total internal energy, Utot(SCFE + ZPE + U):     -78.524216 hartrees
              Total enthalpy, Htot (Utot + pV):     -78.521499 hartrees
    Total Gibbs free energy, Gtot (Htot - T*S):     -78.618214 hartrees


  T =   878.15 K, P =     1.00 atm
   
                  U         Cv          S          H          G        ln(Q)
              =========  =========  =========  =========  =========  =========
  trans.          2.618      2.981     41.293      4.363    -31.899   18.27966
  rot.            2.618      2.981     21.813      2.618    -16.537    9.47661
  vib.            4.756     12.690      8.088      4.756     -2.346    1.34439
  elec.           0.000      0.000      0.000      0.000      0.000    0.00000
  ----------------------------------------------------------------------------
  total           9.991     18.651     71.194     11.737    -50.783   29.10066
   
   Total internal energy, Utot(SCFE + ZPE + U):     -78.523626 hartrees
              Total enthalpy, Htot (Utot + pV):     -78.520845 hartrees
    Total Gibbs free energy, Gtot (Htot - T*S):     -78.620475 hartrees


  T =   898.15 K, P =     1.00 atm
   
                  U         Cv          S          H          G        ln(Q)
              =========  =========  =========  =========  =========  =========
  trans.          2.677      2.981     41.405      4.462    -32.726   18.33596
  rot.            2.677      2.981     21.880      2.677    -16.974    9.51039
  vib.            5.013     12.933      8.376      5.013     -2.511    1.40670
  elec.           0.000      0.000      0.000      0.000      0.000    0.00000
  ----------------------------------------------------------------------------
  total          10.367     18.895     71.662     12.152    -52.211   29.25304
   
   Total internal energy, Utot(SCFE + ZPE + U):     -78.523027 hartrees
              Total enthalpy, Htot (Utot + pV):     -78.520183 hartrees
    Total Gibbs free energy, Gtot (Htot - T*S):     -78.622752 hartrees


  T =   918.15 K, P =     1.00 atm
   
                  U         Cv          S          H          G        ln(Q)
              =========  =========  =========  =========  =========  =========
  trans.          2.737      2.981     41.515      4.561    -33.555   18.39102
  rot.            2.737      2.981     21.946      2.737    -17.412    9.54342
  vib.            5.274     13.170      8.664      5.274     -2.681    1.46945
  elec.           0.000      0.000      0.000      0.000      0.000    0.00000
  ----------------------------------------------------------------------------
  total          10.747     19.132     72.124     12.572    -53.649   29.40389
   
   Total internal energy, Utot(SCFE + ZPE + U):     -78.522421 hartrees
              Total enthalpy, Htot (Utot + pV):     -78.519514 hartrees
    Total Gibbs free energy, Gtot (Htot - T*S):     -78.625043 hartrees


  T =   938.15 K, P =     1.00 atm
   
                  U         Cv          S          H          G        ln(Q)
              =========  =========  =========  =========  =========  =========
  trans.          2.796      2.981     41.622      4.661    -34.387   18.44489
  rot.            2.796      2.981     22.010      2.796    -17.852    9.57575
  vib.            5.539     13.402      8.950      5.539     -2.857    1.53261
  elec.           0.000      0.000      0.000      0.000      0.000    0.00000
  ----------------------------------------------------------------------------
  total          11.132     19.363     72.582     12.996    -55.096   29.55324
   
   Total internal energy, Utot(SCFE + ZPE + U):     -78.521808 hartrees
              Total enthalpy, Htot (Utot + pV):     -78.518837 hartrees
    Total Gibbs free energy, Gtot (Htot - T*S):     -78.627349 hartrees


  T =   958.15 K, P =     1.00 atm
   
                  U         Cv          S          H          G        ln(Q)
              =========  =========  =========  =========  =========  =========
  trans.          2.856      2.981     41.727      4.760    -35.220   18.49763
  rot.            2.856      2.981     22.073      2.856    -18.293    9.60739
  vib.            5.810     13.627      9.235      5.810     -3.039    1.59613
  elec.           0.000      0.000      0.000      0.000      0.000    0.00000
  ----------------------------------------------------------------------------
  total          11.522     19.589     73.034     13.426    -56.552   29.70114
   
   Total internal energy, Utot(SCFE + ZPE + U):     -78.521187 hartrees
              Total enthalpy, Htot (Utot + pV):     -78.518153 hartrees
    Total Gibbs free energy, Gtot (Htot - T*S):     -78.629670 hartrees


  T =   978.15 K, P =     1.00 atm
   
                  U         Cv          S          H          G        ln(Q)
              =========  =========  =========  =========  =========  =========
  trans.          2.916      2.981     41.829      4.859    -36.056   18.54927
  rot.            2.916      2.981     22.134      2.916    -18.735    9.63838
  vib.            6.084     13.847      9.519      6.084     -3.227    1.65997
  elec.           0.000      0.000      0.000      0.000      0.000    0.00000
  ----------------------------------------------------------------------------
  total          11.916     19.809     73.482     13.859    -58.017   29.84762
   
   Total internal energy, Utot(SCFE + ZPE + U):     -78.520559 hartrees
              Total enthalpy, Htot (Utot + pV):     -78.517462 hartrees
    Total Gibbs free energy, Gtot (Htot - T*S):     -78.632005 hartrees


  T =   998.15 K, P =     1.00 atm
   
                  U         Cv          S          H          G        ln(Q)
              =========  =========  =========  =========  =========  =========
  trans.          2.975      2.981     41.930      4.959    -36.893   18.59987
  rot.            2.975      2.981     22.195      2.975    -19.178    9.66874
  vib.            6.363     14.062      9.801      6.363     -3.420    1.72412
  elec.           0.000      0.000      0.000      0.000      0.000    0.00000
  ----------------------------------------------------------------------------
  total          12.314     20.023     73.926     14.298    -59.491   29.99273
   
   Total internal energy, Utot(SCFE + ZPE + U):     -78.519924 hartrees
              Total enthalpy, Htot (Utot + pV):     -78.516763 hartrees
    Total Gibbs free energy, Gtot (Htot - T*S):     -78.634354 hartrees


  T =  1018.15 K, P =     1.00 atm
   
                  U         Cv          S          H          G        ln(Q)
              =========  =========  =========  =========  =========  =========
  trans.          3.035      2.981     42.028      5.058    -37.733   18.64947
  rot.            3.035      2.981     22.254      3.035    -19.623    9.69850
  vib.            6.647     14.271     10.082      6.647     -3.619    1.78853
  elec.           0.000      0.000      0.000      0.000      0.000    0.00000
  ----------------------------------------------------------------------------
  total          12.717     20.232     74.365     14.740    -60.974   30.13649
   
   Total internal energy, Utot(SCFE + ZPE + U):     -78.519283 hartrees
              Total enthalpy, Htot (Utot + pV):     -78.516059 hartrees
    Total Gibbs free energy, Gtot (Htot - T*S):     -78.636717 hartrees


  T =  1038.15 K, P =     1.00 atm
   
                  U         Cv          S          H          G        ln(Q)
              =========  =========  =========  =========  =========  =========
  trans.          3.095      2.981     42.125      5.158    -38.575   18.69810
  rot.            3.095      2.981     22.312      3.095    -20.068    9.72767
  vib.            6.934     14.475     10.362      6.934     -3.823    1.85317
  elec.           0.000      0.000      0.000      0.000      0.000    0.00000
  ----------------------------------------------------------------------------
  total          13.123     20.436     74.799     15.186    -62.466   30.27895
   
   Total internal energy, Utot(SCFE + ZPE + U):     -78.518635 hartrees
              Total enthalpy, Htot (Utot + pV):     -78.515347 hartrees
    Total Gibbs free energy, Gtot (Htot - T*S):     -78.639094 hartrees
   
  cpu seconds- freq        user:        0.0 user+sys:        0.0
  cpu seconds total thru freq        user:     7003.2 user+sys:     7003.2
  Peak memory usage:    800 Mb
  
  end of program freq
   
 Time(freq)  user:        1.1  user+sys:        1.1  wallclock:        1.5
  
  start of program ch
  
  Moments from quantum mechanical wavefunction:
  Dipole Moments  (Debye)
     X=     0.0003     Y=    -0.0001     Z=     0.0011  Tot=     0.0012
  
  cpu seconds- moments     user:        0.3 user+sys:        0.3
  gridpoints used for charge fit         1808
    out of a possible maximum of         1808
  cpu seconds- ps ints     user:        2.1 user+sys:        2.1
  
   Electrostatic potential fitting constrained to reproduce
     total charge:                yes
     dipole moment:               no 
     traceless quadrupole moment: no 
     traceless octupole moment:   no 
  
  Atomic charges from electrostatic potential: 
   
 Atom       C1           C2           H1           H2           H3      
 Charge   -0.35994     -0.35995      0.17997      0.17998      0.17999
   
 Atom       H4      
 Charge    0.17996
  
  sum of atomic charges:     0.000000
   
 RMS Error   7.97E-04 hartrees
 
  
  Moments from electrostatic potential charges:
  Dipole Moments  (Debye)
     X=     0.0003     Y=    -0.0001     Z=     0.0011  Tot=     0.0011
  
  cpu seconds- charge fit  user:        2.8 user+sys:        2.8
  cpu seconds- ch          user:        7.0 user+sys:        7.0
  cpu seconds total thru ch          user:     7010.2 user+sys:     7010.2
  Peak memory usage:   6816 Mb
  
  end of program ch
   
 Time(ch)  user:       13.3  user+sys:       13.3  wallclock:        2.0
  
  start of program post
  
  cpu seconds- post        user:        0.0 user+sys:        0.0
  cpu seconds total thru post        user:     7010.2 user+sys:     7010.2
  Peak memory usage:    839 Mb
  
  end of program post
   
 Time(post)  user:        1.1  user+sys:        1.1  wallclock:        1.4

  Creating output files via OpenBabel...

obabel -ijout AutoTS.T9XnCsLi-separated-energy_0_opt_0.out -oxyz -O AutoTS.T9XnCsLi-separated-energy_0_opt_0.xyz


 Total cpu seconds     user:    7010.189   user+sys:    7010.189
  
 Total elapsed time:    646 seconds

Job AutoTS.T9XnCsLi-separated-energy_0_opt_0 completed on n0260.lr6 at Fri Mar 20 19:49:32 2020
