[Molden Format]
[Geometries] (XYZ)
9

F        0.390353      -0.134481       0.565350
P        0.390332       1.301853      -0.002643
F        0.390613       2.512638       0.956355
F        1.979304       1.301498      -0.003450
F       -1.198660       1.301587      -0.002555
F        0.389586       1.527855      -1.530566
O       -0.396505      -2.838854       1.682422
H       -1.014687      -3.515073       1.978385
H        0.472733      -3.222675       1.838197
9

F        0.429477      -0.314065       0.180207
P        0.326699       1.220666      -0.080559
F        0.286309       2.234828       1.078570
F        1.911165       1.294161      -0.093713
F       -1.251266       1.103087      -0.036190
F        0.271522       1.721057      -1.536329
O       -0.301857      -2.200022       1.773599
H       -1.065593      -2.786301       1.460158
H        0.546603      -2.753655       1.763637
9

F        0.185272      -0.889438      -0.348090
P        0.358081       1.338743      -0.019056
F        0.496220       2.815626       0.252947
F        1.642025       0.799769       0.506871
F       -0.920739       0.994132       0.678248
F        0.241020       1.257699      -1.508016
O       -0.315833      -1.760202       1.329447
H       -0.875858      -2.395385       0.838074
H        0.539150      -2.215705       1.467418
9

F        0.428692      -1.462492      -0.199324
P        0.292677       1.698931      -0.050429
F        0.400198       2.466426       1.228364
F        1.573838       0.966094      -0.241478
F       -1.041183       1.049818      -0.141196
F        0.318060       2.582926      -1.250634
O       -0.347572      -2.014529       1.442315
H       -0.922360      -3.267754       0.945681
H        0.268094      -2.664326       1.803061
9

F        0.063128      -1.830379       0.109886
P        0.349876       1.731082      -0.232941
F        0.501684       2.768270       0.819912
F        1.488831       0.780110      -0.160265
F       -0.922810       0.995376      -0.016998
F        0.327507       2.378782      -1.569144
O       -0.077698      -1.475283       1.470255
H       -1.097279      -4.253200       0.968403
H        0.565629      -2.091727       1.866944
9

F       -0.451302      -2.578523      -0.054977
P        0.491244       1.635569      -0.044909
F        0.599409       2.622204       1.041174
F        1.609658       0.731466      -0.080408
F       -0.819860       0.974781      -0.013954
F        0.568820       2.367241      -1.355483
O       -0.045364      -1.102059       1.560617
H       -1.089514      -3.398258       0.130254
H        0.426151      -1.795278       2.072713
9

F       -0.373046      -2.921699       0.502191
P        0.341845       1.750949      -0.195363
F        0.215758       2.220380       1.210353
F        1.660071       1.097911      -0.399991
F       -0.761989       0.815837      -0.522648
F        0.250316       2.920287      -1.111345
O        0.365987      -0.605481       1.508104
H       -1.251164      -3.178784       0.652777
H        0.707856      -1.340886       2.048450
9

F       -0.409835      -3.327283       1.333971
P        0.433660       1.905584       0.024385
F        0.064049       2.178619       1.439915
F        1.729434       1.153335      -0.008704
F       -0.691300       1.249594      -0.679705
F        0.682711       3.207317      -0.665674
O        0.150610      -0.691747       0.761398
H       -1.077636      -3.965640       1.398883
H        0.744203      -1.340406       1.189886
9

F       -0.420189      -2.881506       1.693347
P        0.399322       1.324136      -0.008119
F        0.403505       2.573744       0.912910
F        2.013100       1.358623      -0.023706
F       -1.195163       1.339077      -0.014541
F        0.402683       1.605191      -1.534844
O        0.375430      -0.136468       0.573490
H       -1.005808      -3.539746       1.983970
H        1.263557      -0.496998       0.719881
[GEOCONV]
energy
0.0
-2.9251896978821605
0.15075470262672752
69.62434058974031
89.87715710699558
9.234339292510413
-5.725301101920195
-3.4742508777417243
45.35256530274637
max-force
0.0
0.0010858121803381407
0.0026753268437207686
0.01336344452068815
0.00036375064578062925
0.029186770018452823
0.0012565191613071473
0.004673704410660223
0.0
max-step
1000.0
1000.0
1000.0
1000.0
1000.0
1000.0
1000.0
1000.0
1000.0
