Command:  /global/home/groups/lr_mp/ewcspottesmith/schrodinger2020-1/jaguar run Scratch_isomer1_co.in -HOST n0260
Release:  2020-1
Exec:     /global/home/groups/lr_mp/ewcspottesmith/schrodinger2020-1/jaguar-v10.7/bin/Linux-x86_64
Host:     n0260.lr6
JobId:    n0260-0-5e74fb3a
JobDir:   /var/tmp/ewcspottesmith/Scratch_isomer1_co
Date:     Fri Mar 20 10:19:56 2020

Contents of /var/tmp/ewcspottesmith/Scratch_isomer1_co:
/var/tmp/ewcspottesmith/Scratch_isomer1_co/Scratch_isomer1_co.recover
/var/tmp/ewcspottesmith/Scratch_isomer1_co/Scratch_isomer1_co.log
/var/tmp/ewcspottesmith/Scratch_isomer1_co/n0260-0-5e74fb3a.recover
/var/tmp/ewcspottesmith/Scratch_isomer1_co/Scratch_isomer1_co.mae
/var/tmp/ewcspottesmith/Scratch_isomer1_co/n0260-0-5e74fb3a
/var/tmp/ewcspottesmith/Scratch_isomer1_co/n0000-0-5e7378a4.hosts
/var/tmp/ewcspottesmith/Scratch_isomer1_co/Scratch_isomer1_co.in
/var/tmp/ewcspottesmith/Scratch_isomer1_co/n0260-0-5e74fb3a.mpinodes
/var/tmp/ewcspottesmith/Scratch_isomer1_co/.write_dir.json


The following structure properties were deleted from the input .mae file: /var/tmp/ewcspottesmith/Scratch_isomer1_co/Scratch_isomer1_co.mae
i_m_Molecular_charge

Executing subprocess:
/global/home/groups/lr_mp/ewcspottesmith/schrodinger2020-1/jaguar-v10.7/bin/Linux-x86_64/jexec Scratch_isomer1_co.in -out /var/tmp/ewcspottesmith/Scratch_isomer1_co -cwd


** WARNING! Your Jaguar license will expire in 11 days. **

Job Scratch_isomer1_co started on n0260.lr6 at Fri Mar 20 10:19:56 2020
jobid: n0260-0-5e74fb3a 
Jaguar version 10.7, release  12
Molecular Point Group: C1      
Point Group used: C1 (symmetry turned off)
pre (input checking) done.
onee (1-electron integrals) done.
Job Scratch_isomer1_co completed on n0260.lr6 at Fri Mar 20 10:19:59 2020
Timer (jaguar_backend.py) : 3.24 secs
Finished:   Fri Mar 20 10:19:59 2020
